
     Program PWSCF v.7.4.1 starts on 31Oct2025 at 22:52:54 

     This program is part of the open-source Quantum ESPRESSO suite
     for quantum simulation of materials; please cite
         "P. Giannozzi et al., J. Phys.:Condens. Matter 21 395502 (2009);
         "P. Giannozzi et al., J. Phys.:Condens. Matter 29 465901 (2017);
         "P. Giannozzi et al., J. Chem. Phys. 152 154105 (2020);
          URL http://www.quantum-espresso.org", 
     in publications or presentations arising from this work. More details at
     http://www.quantum-espresso.org/quote

     Parallel version (MPI), running on     6 processors

     MPI processes distributed on     1 nodes
     2158 MiB available memory on the printing compute node when the environment starts

     Reading input from tife.in

     Current dimensions of program PWSCF are:
     Max number of different atomic species (ntypx) = 10
     Max number of k-points (npk) =  40000
     Max angular momentum in pseudopotentials (lmaxx) =  4
     file Fe.pbe-spn-kjpaw_psl.0.2.1.UPF: wavefunction(s)  3D renormalized

     IMPORTANT: XC functional enforced from input :
     Exchange-correlation= PBE
                           (   1   4   3   4   0   0   0)
     Any further DFT definition will be discarded
     Please, verify this is what you really want

     Message from routine setup:
     using ibrav=0 with symmetry is DISCOURAGED, use correct ibrav instead

     R & G space division:  proc/nbgrp/npool/nimage =       6
     Subspace diagonalization in iterative solution of the eigenvalue problem:
     a serial algorithm will be used


     Parallelization info
     --------------------
     sticks:   dense  smooth     PW     G-vecs:    dense   smooth      PW
     Min         571     228     67                25220     6400    1007
     Max         573     229     69                25221     6401    1008
     Sum        3433    1369    405               151323    38401    6043

     Using Slab Decomposition



     bravais-lattice index     =            0
     lattice parameter (alat)  =       5.5533  a.u.
     unit-cell volume          =     171.2590 (a.u.)^3
     number of atoms/cell      =            2
     number of atomic types    =            2
     number of electrons       =        28.00
     number of Kohn-Sham states=           18
     kinetic-energy cutoff     =     140.0000  Ry
     charge density cutoff     =    1400.0000  Ry
     scf convergence threshold =      1.0E-08
     mixing beta               =       0.7000
     number of iterations used =            8  plain     mixing
     energy convergence thresh.=      1.0E-04
     force convergence thresh. =      1.0E-03
     press convergence thresh. =      5.0E-01
     Exchange-correlation= PBE
                           (   1   4   3   4   0   0   0)
     nstep                     =           50


     celldm(1)=   5.553300  celldm(2)=   0.000000  celldm(3)=   0.000000
     celldm(4)=   0.000000  celldm(5)=   0.000000  celldm(6)=   0.000000

     crystal axes: (cart. coord. in units of alat)
               a(1) = (   1.000000   0.000000   0.000000 )  
               a(2) = (   0.000000   1.000000   0.000000 )  
               a(3) = (   0.000000   0.000000   1.000000 )  

     reciprocal axes: (cart. coord. in units 2 pi/alat)
               b(1) = (  1.000000  0.000000  0.000000 )  
               b(2) = (  0.000000  1.000000  0.000000 )  
               b(3) = (  0.000000  0.000000  1.000000 )  


     PseudoPot. # 1 for Fe read from file:
     /home/rafi/QE/qe-7.4.1/pseudo/Fe.pbe-spn-kjpaw_psl.0.2.1.UPF
     MD5 check sum: e86618425769142926afa95317d90200
     Pseudo is Projector augmented-wave + core cor, Zval = 16.0
     Generated using "atomic" code by A. Dal Corso  v.5.0.99 svn rev. 10869
     Shape of augmentation charge: PSQ
     Using radial grid of 1191 points,  6 beta functions with: 
                l(1) =   0
                l(2) =   0
                l(3) =   1
                l(4) =   1
                l(5) =   2
                l(6) =   2
     Q(r) pseudized with 0 coefficients 


     PseudoPot. # 2 for Ti read from file:
     /home/rafi/QE/qe-7.4.1/pseudo/ti_pbe_v1.4.uspp.F.UPF
     MD5 check sum: 88a00a6731bd790ddea75d31a80cb452
     Pseudo is Ultrasoft + core correction, Zval = 12.0
     Generated by new atomic code, or converted to UPF format
     Using radial grid of  851 points,  6 beta functions with: 
                l(1) =   0
                l(2) =   0
                l(3) =   1
                l(4) =   1
                l(5) =   2
                l(6) =   2
     Q(r) pseudized with  6 coefficients,  rinner =    1.000   1.000   1.000
                                                       1.000   1.000

     atomic species   valence    mass     pseudopotential
     Fe               16.00    55.84500     Fe( 1.00)
     Ti               12.00    47.86700     Ti( 1.00)

     48 Sym. Ops., with inversion, found



   Cartesian axes

     site n.     atom                  positions (alat units)
         1        Fe     tau(   1) = (   0.5000000   0.5000000   0.5000000  )
         2        Ti     tau(   2) = (   0.0000000   0.0000000   0.0000000  )

     number of k points=    56  Marzari-Vanderbilt smearing, width (Ry)=  0.0050
                       cart. coord. in units 2pi/alat
        k(    1) = (   0.0000000   0.0000000   0.0000000), wk =   0.0020000
        k(    2) = (   0.0000000   0.0000000   0.1000000), wk =   0.0120000
        k(    3) = (   0.0000000   0.0000000   0.2000000), wk =   0.0120000
        k(    4) = (   0.0000000   0.0000000   0.3000000), wk =   0.0120000
        k(    5) = (   0.0000000   0.0000000   0.4000000), wk =   0.0120000
        k(    6) = (   0.0000000   0.0000000  -0.5000000), wk =   0.0060000
        k(    7) = (   0.0000000   0.1000000   0.1000000), wk =   0.0240000
        k(    8) = (   0.0000000   0.1000000   0.2000000), wk =   0.0480000
        k(    9) = (   0.0000000   0.1000000   0.3000000), wk =   0.0480000
        k(   10) = (   0.0000000   0.1000000   0.4000000), wk =   0.0480000
        k(   11) = (   0.0000000   0.1000000  -0.5000000), wk =   0.0240000
        k(   12) = (   0.0000000   0.2000000   0.2000000), wk =   0.0240000
        k(   13) = (   0.0000000   0.2000000   0.3000000), wk =   0.0480000
        k(   14) = (   0.0000000   0.2000000   0.4000000), wk =   0.0480000
        k(   15) = (   0.0000000   0.2000000  -0.5000000), wk =   0.0240000
        k(   16) = (   0.0000000   0.3000000   0.3000000), wk =   0.0240000
        k(   17) = (   0.0000000   0.3000000   0.4000000), wk =   0.0480000
        k(   18) = (   0.0000000   0.3000000  -0.5000000), wk =   0.0240000
        k(   19) = (   0.0000000   0.4000000   0.4000000), wk =   0.0240000
        k(   20) = (   0.0000000   0.4000000  -0.5000000), wk =   0.0240000
        k(   21) = (   0.0000000  -0.5000000  -0.5000000), wk =   0.0060000
        k(   22) = (   0.1000000   0.1000000   0.1000000), wk =   0.0160000
        k(   23) = (   0.1000000   0.1000000   0.2000000), wk =   0.0480000
        k(   24) = (   0.1000000   0.1000000   0.3000000), wk =   0.0480000
        k(   25) = (   0.1000000   0.1000000   0.4000000), wk =   0.0480000
        k(   26) = (   0.1000000   0.1000000  -0.5000000), wk =   0.0240000
        k(   27) = (   0.1000000   0.2000000   0.2000000), wk =   0.0480000
        k(   28) = (   0.1000000   0.2000000   0.3000000), wk =   0.0960000
        k(   29) = (   0.1000000   0.2000000   0.4000000), wk =   0.0960000
        k(   30) = (   0.1000000   0.2000000  -0.5000000), wk =   0.0480000
        k(   31) = (   0.1000000   0.3000000   0.3000000), wk =   0.0480000
        k(   32) = (   0.1000000   0.3000000   0.4000000), wk =   0.0960000
        k(   33) = (   0.1000000   0.3000000  -0.5000000), wk =   0.0480000
        k(   34) = (   0.1000000   0.4000000   0.4000000), wk =   0.0480000
        k(   35) = (   0.1000000   0.4000000  -0.5000000), wk =   0.0480000
        k(   36) = (   0.1000000  -0.5000000  -0.5000000), wk =   0.0120000
        k(   37) = (   0.2000000   0.2000000   0.2000000), wk =   0.0160000
        k(   38) = (   0.2000000   0.2000000   0.3000000), wk =   0.0480000
        k(   39) = (   0.2000000   0.2000000   0.4000000), wk =   0.0480000
        k(   40) = (   0.2000000   0.2000000  -0.5000000), wk =   0.0240000
        k(   41) = (   0.2000000   0.3000000   0.3000000), wk =   0.0480000
        k(   42) = (   0.2000000   0.3000000   0.4000000), wk =   0.0960000
        k(   43) = (   0.2000000   0.3000000  -0.5000000), wk =   0.0480000
        k(   44) = (   0.2000000   0.4000000   0.4000000), wk =   0.0480000
        k(   45) = (   0.2000000   0.4000000  -0.5000000), wk =   0.0480000
        k(   46) = (   0.2000000  -0.5000000  -0.5000000), wk =   0.0120000
        k(   47) = (   0.3000000   0.3000000   0.3000000), wk =   0.0160000
        k(   48) = (   0.3000000   0.3000000   0.4000000), wk =   0.0480000
        k(   49) = (   0.3000000   0.3000000  -0.5000000), wk =   0.0240000
        k(   50) = (   0.3000000   0.4000000   0.4000000), wk =   0.0480000
        k(   51) = (   0.3000000   0.4000000  -0.5000000), wk =   0.0480000
        k(   52) = (   0.3000000  -0.5000000  -0.5000000), wk =   0.0120000
        k(   53) = (   0.4000000   0.4000000   0.4000000), wk =   0.0160000
        k(   54) = (   0.4000000   0.4000000  -0.5000000), wk =   0.0240000
        k(   55) = (   0.4000000  -0.5000000  -0.5000000), wk =   0.0120000
        k(   56) = (  -0.5000000  -0.5000000  -0.5000000), wk =   0.0020000

     Dense  grid:   151323 G-vectors     FFT dimensions: (  72,  72,  72)

     Smooth grid:    38401 G-vectors     FFT dimensions: (  45,  45,  45)

     Estimated max dynamical RAM per process >     117.67 MB

     Estimated total dynamical RAM >     706.03 MB

     Check: negative core charge=   -0.000003

     Initial potential from superposition of free atoms

     starting charge      26.9995, renormalised to      28.0000

     negative rho (up, down):  1.378E-03 0.000E+00
     Starting wfcs are   23 randomized atomic wfcs
     Checking if some PAW data can be deallocated... 

     total cpu time spent up to now is        2.0 secs

     Self-consistent Calculation

     iteration #  1     ecut=   140.00 Ry     beta= 0.70
     Davidson diagonalization with overlap
     ethr =  1.00E-02,  avg # of iterations =  2.2

     negative rho (up, down):  7.049E-05 0.000E+00

     total cpu time spent up to now is        5.3 secs

     total energy              =    -434.89170217 Ry
     estimated scf accuracy    <      17.46448648 Ry

     iteration #  2     ecut=   140.00 Ry     beta= 0.70
     Davidson diagonalization with overlap
     ethr =  1.00E-02,  avg # of iterations =  6.2

     negative rho (up, down):  2.324E-05 0.000E+00

     total cpu time spent up to now is       10.8 secs

     WARNING: integrated charge=    28.00017641, expected=    28.00000000

     total energy              =    -448.51607917 Ry
     estimated scf accuracy    <      66.08472113 Ry

     iteration #  3     ecut=   140.00 Ry     beta= 0.70
     Davidson diagonalization with overlap
     ethr =  1.00E-02,  avg # of iterations =  3.1

     negative rho (up, down):  2.150E-04 0.000E+00

     total cpu time spent up to now is       14.8 secs

     WARNING: integrated charge=    28.00002463, expected=    28.00000000

     total energy              =    -448.59250499 Ry
     estimated scf accuracy    <      16.76216641 Ry

     iteration #  4     ecut=   140.00 Ry     beta= 0.70
     Davidson diagonalization with overlap
     ethr =  1.00E-02,  avg # of iterations =  2.1

     negative rho (up, down):  2.586E-04 0.000E+00

     total cpu time spent up to now is       18.0 secs

     WARNING: integrated charge=    28.00002628, expected=    28.00000000

     total energy              =    -449.10759888 Ry
     estimated scf accuracy    <       4.84254166 Ry

     iteration #  5     ecut=   140.00 Ry     beta= 0.70
     Davidson diagonalization with overlap
     ethr =  1.00E-02,  avg # of iterations =  1.0

     negative rho (up, down):  3.050E-04 0.000E+00

     total cpu time spent up to now is       20.7 secs

     WARNING: integrated charge=    28.00003115, expected=    28.00000000

     total energy              =    -449.11591914 Ry
     estimated scf accuracy    <       4.38608417 Ry

     iteration #  6     ecut=   140.00 Ry     beta= 0.70
     Davidson diagonalization with overlap
     ethr =  1.00E-02,  avg # of iterations =  1.0

     negative rho (up, down):  1.107E-03 0.000E+00

     total cpu time spent up to now is       23.4 secs

     total energy              =    -447.89042885 Ry
     estimated scf accuracy    <       4.55424433 Ry

     iteration #  7     ecut=   140.00 Ry     beta= 0.70
     Davidson diagonalization with overlap
     ethr =  1.00E-02,  avg # of iterations =  3.3

     negative rho (up, down):  1.032E-03 0.000E+00

     total cpu time spent up to now is       26.6 secs

     total energy              =    -448.62525667 Ry
     estimated scf accuracy    <       3.52212065 Ry

     iteration #  8     ecut=   140.00 Ry     beta= 0.70
     Davidson diagonalization with overlap
     ethr =  1.00E-02,  avg # of iterations =  1.0

     negative rho (up, down):  8.529E-04 0.000E+00

     total cpu time spent up to now is       29.4 secs

     WARNING: integrated charge=    28.00000875, expected=    28.00000000

     total energy              =    -448.45255198 Ry
     estimated scf accuracy    <       1.58603500 Ry

     iteration #  9     ecut=   140.00 Ry     beta= 0.70
     Davidson diagonalization with overlap
     ethr =  5.66E-03,  avg # of iterations =  1.6

     negative rho (up, down):  8.202E-04 0.000E+00

     total cpu time spent up to now is       32.5 secs

     WARNING: integrated charge=    28.00001036, expected=    28.00000000

     total energy              =    -448.59174834 Ry
     estimated scf accuracy    <       0.09143237 Ry

     iteration # 10     ecut=   140.00 Ry     beta= 0.70
     Davidson diagonalization with overlap
     ethr =  3.27E-04,  avg # of iterations =  2.8

     negative rho (up, down):  8.248E-04 0.000E+00

     total cpu time spent up to now is       35.8 secs

     WARNING: integrated charge=    28.00001058, expected=    28.00000000

     total energy              =    -448.61212124 Ry
     estimated scf accuracy    <       0.09570457 Ry

     iteration # 11     ecut=   140.00 Ry     beta= 0.70
     Davidson diagonalization with overlap
     ethr =  3.27E-04,  avg # of iterations =  2.3

     negative rho (up, down):  8.330E-04 0.000E+00

     total cpu time spent up to now is       38.9 secs

     WARNING: integrated charge=    28.00000890, expected=    28.00000000

     total energy              =    -448.61169923 Ry
     estimated scf accuracy    <       0.46958499 Ry

     iteration # 12     ecut=   140.00 Ry     beta= 0.70
     Davidson diagonalization with overlap
     ethr =  3.27E-04,  avg # of iterations =  1.2

     negative rho (up, down):  6.910E-04 0.000E+00

     total cpu time spent up to now is       41.7 secs

     WARNING: integrated charge=    28.00000883, expected=    28.00000000

     total energy              =    -448.70102360 Ry
     estimated scf accuracy    <       0.35246846 Ry

     iteration # 13     ecut=   140.00 Ry     beta= 0.70
     Davidson diagonalization with overlap
     ethr =  3.27E-04,  avg # of iterations =  3.7

     negative rho (up, down):  7.346E-04 0.000E+00

     total cpu time spent up to now is       45.6 secs

     WARNING: integrated charge=    28.00000383, expected=    28.00000000

     total energy              =    -448.66048878 Ry
     estimated scf accuracy    <       0.89719765 Ry

     iteration # 14     ecut=   140.00 Ry     beta= 0.70
     Davidson diagonalization with overlap
     ethr =  3.27E-04,  avg # of iterations =  3.0

     negative rho (up, down):  1.107E-03 0.000E+00

     total cpu time spent up to now is       48.9 secs

     WARNING: integrated charge=    27.99999453, expected=    28.00000000

     total energy              =    -448.44405667 Ry
     estimated scf accuracy    <       0.40755017 Ry

     iteration # 15     ecut=   140.00 Ry     beta= 0.70
     Davidson diagonalization with overlap
     ethr =  3.27E-04,  avg # of iterations =  6.3

     negative rho (up, down):  9.791E-04 0.000E+00

     total cpu time spent up to now is       54.7 secs

     WARNING: integrated charge=    27.99999610, expected=    28.00000000

     total energy              =    -448.57338958 Ry
     estimated scf accuracy    <       1.87173876 Ry

     iteration # 16     ecut=   140.00 Ry     beta= 0.70
     Davidson diagonalization with overlap
     ethr =  3.27E-04,  avg # of iterations =  3.6

     negative rho (up, down):  1.016E-03 0.000E+00

     total cpu time spent up to now is       58.4 secs

     WARNING: integrated charge=    27.99999523, expected=    28.00000000

     total energy              =    -448.55774660 Ry
     estimated scf accuracy    <       0.26662064 Ry

     iteration # 17     ecut=   140.00 Ry     beta= 0.70
     Davidson diagonalization with overlap
     ethr =  3.27E-04,  avg # of iterations =  3.8

     negative rho (up, down):  1.041E-03 0.000E+00

     total cpu time spent up to now is       62.0 secs

     total energy              =    -448.58578557 Ry
     estimated scf accuracy    <       0.00238304 Ry

     iteration # 18     ecut=   140.00 Ry     beta= 0.70
     Davidson diagonalization with overlap
     ethr =  8.51E-06,  avg # of iterations =  5.2

     negative rho (up, down):  1.051E-03 0.000E+00

     total cpu time spent up to now is       66.6 secs

     total energy              =    -448.58648798 Ry
     estimated scf accuracy    <       0.00616337 Ry

     iteration # 19     ecut=   140.00 Ry     beta= 0.70
     Davidson diagonalization with overlap
     ethr =  8.51E-06,  avg # of iterations =  2.0

     negative rho (up, down):  1.040E-03 0.000E+00

     total cpu time spent up to now is       69.9 secs

     total energy              =    -448.58688266 Ry
     estimated scf accuracy    <       0.00074558 Ry

     iteration # 20     ecut=   140.00 Ry     beta= 0.70
     Davidson diagonalization with overlap
     ethr =  2.66E-06,  avg # of iterations =  3.7

     negative rho (up, down):  1.021E-03 0.000E+00

     total cpu time spent up to now is       73.7 secs

     total energy              =    -448.58668161 Ry
     estimated scf accuracy    <       0.01517594 Ry

     iteration # 21     ecut=   140.00 Ry     beta= 0.70
     Davidson diagonalization with overlap
     ethr =  2.66E-06,  avg # of iterations =  3.3

     negative rho (up, down):  1.016E-03 0.000E+00

     total cpu time spent up to now is       77.1 secs

     total energy              =    -448.58688514 Ry
     estimated scf accuracy    <       0.00366329 Ry

     iteration # 22     ecut=   140.00 Ry     beta= 0.70
     Davidson diagonalization with overlap
     ethr =  2.66E-06,  avg # of iterations =  1.0

     negative rho (up, down):  1.005E-03 0.000E+00

     total cpu time spent up to now is       80.1 secs

     total energy              =    -448.58675402 Ry
     estimated scf accuracy    <       0.00320244 Ry

     iteration # 23     ecut=   140.00 Ry     beta= 0.70
     Davidson diagonalization with overlap
     ethr =  2.66E-06,  avg # of iterations =  1.1

     negative rho (up, down):  9.861E-04 0.000E+00

     total cpu time spent up to now is       83.1 secs

     total energy              =    -448.58660558 Ry
     estimated scf accuracy    <       0.00152563 Ry

     iteration # 24     ecut=   140.00 Ry     beta= 0.70
     Davidson diagonalization with overlap
     ethr =  2.66E-06,  avg # of iterations =  2.0

     negative rho (up, down):  9.794E-04 0.000E+00

     total cpu time spent up to now is       86.3 secs

     total energy              =    -448.58667339 Ry
     estimated scf accuracy    <       0.00003961 Ry

     iteration # 25     ecut=   140.00 Ry     beta= 0.70
     Davidson diagonalization with overlap
     ethr =  1.41E-07,  avg # of iterations =  4.3

     negative rho (up, down):  9.815E-04 0.000E+00

     total cpu time spent up to now is       90.1 secs

     total energy              =    -448.58668411 Ry
     estimated scf accuracy    <       0.00001285 Ry

     iteration # 26     ecut=   140.00 Ry     beta= 0.70
     Davidson diagonalization with overlap
     ethr =  4.59E-08,  avg # of iterations =  2.1

     negative rho (up, down):  9.816E-04 0.000E+00

     total cpu time spent up to now is       93.7 secs

     total energy              =    -448.58668524 Ry
     estimated scf accuracy    <       0.00000117 Ry

     iteration # 27     ecut=   140.00 Ry     beta= 0.70
     Davidson diagonalization with overlap
     ethr =  4.19E-09,  avg # of iterations =  4.2

     negative rho (up, down):  9.815E-04 0.000E+00

     total cpu time spent up to now is       97.6 secs

     End of self-consistent calculation

          k = 0.0000 0.0000 0.0000 (  4801 PWs)   bands (ev):

   -69.2095 -39.1187 -35.2715 -35.2715 -35.2715 -15.2147 -15.2147 -15.2147
    10.1528  13.8671  13.8671  16.6593  16.6593  16.6593  19.0109  19.0109
    20.9597  20.9597

          k = 0.0000 0.0000 0.1000 (  4813 PWs)   bands (ev):

   -69.2092 -39.1161 -35.2745 -35.2710 -35.2710 -15.2500 -15.2126 -15.2126
    10.3616  13.9675  13.9749  16.6439  16.6439  16.7048  18.8834  19.0583
    20.6598  20.6599

          k = 0.0000 0.0000 0.2000 (  4805 PWs)   bands (ev):

   -69.2083 -39.1094 -35.2824 -35.2698 -35.2698 -15.3415 -15.2070 -15.2070
    10.9632  14.2449  14.2599  16.6107  16.6107  16.8302  18.5181  19.1559
    19.9919  19.9919

          k = 0.0000 0.0000 0.3000 (  4801 PWs)   bands (ev):

   -69.2072 -39.1012 -35.2920 -35.2683 -35.2683 -15.4531 -15.2002 -15.2002
    11.8809  14.5152  14.7122  16.5870  16.5870  17.0005  17.9716  19.1418
    19.3000  19.3000

          k = 0.0000 0.0000 0.4000 (  4817 PWs)   bands (ev):

   -69.2063 -39.0945 -35.2998 -35.2671 -35.2671 -15.5422 -15.1947 -15.1947
    12.9673  14.5180  15.2397  16.5880  16.5880  17.1545  17.3648  18.7961
    18.7961  18.8382

          k = 0.0000 0.0000-0.5000 (  4828 PWs)   bands (ev):

   -69.2060 -39.0920 -35.3027 -35.2666 -35.2666 -15.5759 -15.1926 -15.1926
    13.8513  14.0900  15.5490  16.5952  16.5952  17.0244  17.2183  18.6017
    18.6101  18.6101

          k = 0.0000 0.1000 0.1000 (  4801 PWs)   bands (ev):

   -69.2088 -39.1134 -35.2756 -35.2728 -35.2706 -15.2512 -15.2437 -15.2103
    10.5654  14.0613  14.0842  16.5451  16.6173  16.8168  18.8692  19.0236
    20.3426  20.3609

          k = 0.0000 0.1000 0.2000 (  4803 PWs)   bands (ev):

   -69.2080 -39.1062 -35.2830 -35.2728 -35.2694 -15.3383 -15.2405 -15.2045
    11.1505  14.3120  14.3775  16.4519  16.5545  16.9412  18.5980  19.1096
    19.7216  19.7867

          k = 0.0000 0.1000 0.3000 (  4796 PWs)   bands (ev):

   -69.2069 -39.0973 -35.2929 -35.2721 -35.2679 -15.4485 -15.2326 -15.1973
    12.0367  14.5817  14.7890  16.4110  16.4880  16.9994  18.1494  18.9314
    19.3033  19.3263

          k = 0.0000 0.1000 0.4000 (  4792 PWs)   bands (ev):

   -69.2060 -39.0902 -35.3008 -35.2715 -35.2667 -15.5365 -15.2261 -15.1915
    13.0724  14.5701  15.2636  16.4258  16.4337  16.9482  17.6902  18.4887
    19.0517  19.1726

          k = 0.0000 0.1000-0.5000 (  4802 PWs)   bands (ev):

   -69.2057 -39.0874 -35.3038 -35.2713 -35.2662 -15.5698 -15.2236 -15.1892
    13.8868  14.1687  15.5384  16.3625  16.4679  16.8870  17.4907  18.2964
    18.9935  19.0339

          k = 0.0000 0.2000 0.2000 (  4785 PWs)   bands (ev):

   -69.2071 -39.0977 -35.2865 -35.2789 -35.2682 -15.3383 -15.3191 -15.1979
    11.6805  14.4574  14.7145  16.2470  16.4372  16.9746  18.6924  19.0691
    19.1612  19.5090

          k = 0.0000 0.2000 0.3000 (  4789 PWs)   bands (ev):

   -69.2060 -39.0873 -35.2953 -35.2818 -35.2668 -15.4365 -15.3164 -15.1897
    12.4546  14.5838  15.1526  16.1164  16.3543  16.8035  18.5178  18.6538
    19.2399  19.4495

          k = 0.0000 0.2000 0.4000 (  4794 PWs)   bands (ev):

   -69.2052 -39.0788 -35.3036 -35.2830 -35.2657 -15.5215 -15.3077 -15.1831
    13.2977  14.5089  15.5470  16.1008  16.3934  16.5248  18.2063  18.3879
    19.3828  19.5780

          k = 0.0000 0.2000-0.5000 (  4794 PWs)   bands (ev):

   -69.2048 -39.0755 -35.3069 -35.2834 -35.2652 -15.5537 -15.3043 -15.1806
    13.8604  14.2418  15.7160  16.1627  16.3439  16.4703  18.1417  18.1920
    19.4145  19.6774

          k = 0.0000 0.3000 0.3000 (  4797 PWs)   bands (ev):

   -69.2050 -39.0748 -35.2999 -35.2923 -35.2655 -15.4297 -15.4108 -15.1803
    12.9886  14.4729  15.6946  15.8842  16.3989  16.4419  18.5201  18.8389
    19.1302  19.7645

          k = 0.0000 0.3000 0.4000 (  4792 PWs)   bands (ev):

   -69.2041 -39.0647 -35.3072 -35.2971 -35.2644 -15.5029 -15.4073 -15.1727
    13.4473  14.2809  15.7854  16.0913  16.1601  16.7673  18.3516  18.8591
    19.3424  20.1176

          k = 0.0000 0.3000-0.5000 (  4800 PWs)   bands (ev):

   -69.2038 -39.0608 -35.3106 -35.2983 -35.2640 -15.5338 -15.4028 -15.1698
    13.6619  14.1443  15.8269  15.8858  16.3135  17.1714  18.0904  18.8622
    19.5225  20.3179

          k = 0.0000 0.4000 0.4000 (  4794 PWs)   bands (ev):

   -69.2033 -39.0532 -35.3108 -35.3078 -35.2633 -15.4910 -15.4838 -15.1643
    13.4636  14.0815  15.5977  15.7580  16.8927  17.3505  18.5851  19.0570
    19.2678  20.5474

          k = 0.0000 0.4000-0.5000 (  4776 PWs)   bands (ev):

   -69.2029 -39.0488 -35.3137 -35.3103 -35.2629 -15.5177 -15.4816 -15.1611
    13.4496  14.0074  15.5798  15.5912  17.1828  18.0957  18.1426  19.1984
    19.3337  20.7678

          k = 0.0000-0.5000-0.5000 (  4780 PWs)   bands (ev):

   -69.2026 -39.0442 -35.3149 -35.3149 -35.2626 -15.5115 -15.5115 -15.1577
    13.3648  13.9510  15.4901  15.4901  17.7652  18.1969  18.7151  18.7151
    19.4576  20.9303

          k = 0.1000 0.1000 0.1000 (  4812 PWs)   bands (ev):

   -69.2085 -39.1105 -35.2752 -35.2752 -35.2713 -15.2514 -15.2416 -15.2416
    10.7650  14.1724  14.1724  16.5159  16.5159  16.8986  18.9339  18.9339
    19.8708  20.6340

          k = 0.1000 0.1000 0.2000 (  4789 PWs)   bands (ev):

   -69.2076 -39.1029 -35.2833 -35.2739 -35.2714 -15.3351 -15.2397 -15.2359
    11.3365  14.4266  14.4476  16.3881  16.4399  16.9559  18.6778  19.0681
    19.4054  19.9641

          k = 0.1000 0.1000 0.3000 (  4799 PWs)   bands (ev):

   -69.2066 -39.0935 -35.2935 -35.2724 -35.2713 -15.4440 -15.2303 -15.2289
    12.1961  14.7058  14.8113  16.3373  16.3378  16.8861  18.3030  18.9276
    19.2888  19.3767

          k = 0.1000 0.1000 0.4000 (  4799 PWs)   bands (ev):

   -69.2057 -39.0859 -35.3017 -35.2711 -35.2711 -15.5310 -15.2232 -15.2227
    13.1887  14.6621  15.2441  16.2075  16.4170  16.7662  17.9265  18.5943
    18.8163  19.5636

          k = 0.1000 0.1000-0.5000 (  4804 PWs)   bands (ev):

   -69.2054 -39.0830 -35.3048 -35.2711 -35.2706 -15.5640 -15.2211 -15.2197
    13.9489  14.2663  15.4938  16.0996  16.5423  16.6869  17.7569  18.3701
    18.6482  19.6882

          k = 0.1000 0.2000 0.2000 (  4806 PWs)   bands (ev):

   -69.2068 -39.0942 -35.2860 -35.2797 -35.2716 -15.3341 -15.3168 -15.2307
    11.8615  14.5871  14.7666  16.2006  16.3092  16.8241  18.7766  19.0438
    19.2040  19.6785

          k = 0.1000 0.2000 0.3000 (  4804 PWs)   bands (ev):

   -69.2057 -39.0834 -35.2953 -35.2819 -35.2709 -15.4324 -15.3134 -15.2219
    12.6241  14.7336  15.1552  16.0616  16.2158  16.5698  18.6390  18.8357
    19.2253  19.5762

          k = 0.1000 0.2000 0.4000 (  4796 PWs)   bands (ev):

   -69.2048 -39.0747 -35.3040 -35.2826 -35.2701 -15.5168 -15.3047 -15.2147
    13.4449  14.6569  15.4529  15.9829  16.2795  16.4357  18.3998  18.4741
    19.0328  20.0421

          k = 0.1000 0.2000-0.5000 (  4804 PWs)   bands (ev):

   -69.2045 -39.0714 -35.3074 -35.2829 -35.2698 -15.5489 -15.3014 -15.2120
    13.9840  14.3811  15.5811  15.9414  16.2955  16.5306  18.2038  18.3557
    18.8905  20.4131

          k = 0.1000 0.3000 0.3000 (  4792 PWs)   bands (ev):

   -69.2046 -39.0709 -35.2993 -35.2925 -35.2698 -15.4253 -15.4084 -15.2123
    13.1678  14.6233  15.6871  15.8412  16.2022  16.2536  18.6253  18.9930
    19.0878  19.9871

          k = 0.1000 0.3000 0.4000 (  4787 PWs)   bands (ev):

   -69.2038 -39.0608 -35.3070 -35.2968 -35.2688 -15.4993 -15.4045 -15.2045
    13.6187  14.4308  15.7339  15.8960  16.1726  16.6022  18.3884  18.9384
    19.1380  20.5286

          k = 0.1000 0.3000-0.5000 (  4766 PWs)   bands (ev):

   -69.2035 -39.0569 -35.3106 -35.2977 -35.2684 -15.5302 -15.4002 -15.2015
    13.8179  14.2992  15.7533  15.7668  16.2725  17.0246  18.1121  18.9940
    19.0300  20.7097

          k = 0.1000 0.4000 0.4000 (  4780 PWs)   bands (ev):

   -69.2029 -39.0495 -35.3102 -35.3075 -35.2678 -15.4879 -15.4815 -15.1962
    13.6328  14.2339  15.5658  15.6947  16.8186  17.1319  18.4665  18.8172
    19.3724  20.8227

          k = 0.1000 0.4000-0.5000 (  4772 PWs)   bands (ev):

   -69.2026 -39.0452 -35.3133 -35.3097 -35.2673 -15.5150 -15.4792 -15.1931
    13.6138  14.1622  15.5459  15.5531  17.0823  17.8046  18.0880  18.7790
    19.4426  20.9287

          k = 0.1000-0.5000-0.5000 (  4772 PWs)   bands (ev):

   -69.2023 -39.0407 -35.3143 -35.3143 -35.2669 -15.5092 -15.5092 -15.1898
    13.5307  14.1052  15.4647  15.4647  17.7689  18.1979  18.2043  18.2043
    19.5619  21.5822

          k = 0.2000 0.2000 0.2000 (  4812 PWs)   bands (ev):

   -69.2059 -39.0849 -35.2846 -35.2846 -35.2778 -15.3279 -15.3109 -15.3109
    12.3681  14.9109  14.9109  16.0806  16.0806  16.4311  18.9667  18.9667
    19.4617  19.9324

          k = 0.2000 0.2000 0.3000 (  4790 PWs)   bands (ev):

   -69.2048 -39.0733 -35.2956 -35.2829 -35.2803 -15.4217 -15.3073 -15.3036
    13.0837  15.1118  15.1612  15.9290  15.9529  16.1232  18.8448  18.9685
    19.3182  19.9269

          k = 0.2000 0.2000 0.4000 (  4794 PWs)   bands (ev):

   -69.2040 -39.0640 -35.3052 -35.2817 -35.2816 -15.5047 -15.2976 -15.2961
    13.8036  14.9408  15.3128  15.7848  16.0491  16.2660  18.5587  18.7085
    18.9269  20.4837

          k = 0.2000 0.2000-0.5000 (  4792 PWs)   bands (ev):

   -69.2037 -39.0604 -35.3088 -35.2822 -35.2811 -15.5363 -15.2954 -15.2918
    14.2308  14.6412  15.4185  15.7051  16.1278  16.4987  18.2212  18.6357
    18.8076  20.5932

          k = 0.2000 0.3000 0.3000 (  4791 PWs)   bands (ev):

   -69.2038 -39.0608 -35.2978 -35.2934 -35.2810 -15.4136 -15.4024 -15.2954
    13.6642  15.0187  15.6529  15.7396  15.7728  15.8880  18.7366  18.9277
    19.4197  20.1871

          k = 0.2000 0.3000 0.4000 (  4782 PWs)   bands (ev):

   -69.2029 -39.0507 -35.3067 -35.2959 -35.2804 -15.4898 -15.3972 -15.2871
    14.0904  14.7990  15.5833  15.6408  15.9949  16.2827  18.4327  18.6940
    19.3996  20.5237

          k = 0.2000 0.3000-0.5000 (  4780 PWs)   bands (ev):

   -69.2026 -39.0468 -35.3106 -35.2963 -35.2801 -15.5207 -15.3933 -15.2839
    14.2381  14.6707  15.5417  15.6095  16.0955  16.6857  18.1153  18.5986
    19.3712  20.6973

          k = 0.2000 0.4000 0.4000 (  4789 PWs)   bands (ev):

   -69.2021 -39.0399 -35.3086 -35.3068 -35.2793 -15.4797 -15.4754 -15.2792
    14.1106  14.6219  15.4916  15.5669  16.5804  16.5871  18.3635  18.4142
    19.7067  20.7839

          k = 0.2000 0.4000-0.5000 (  4784 PWs)   bands (ev):

   -69.2018 -39.0358 -35.3121 -35.3082 -35.2789 -15.5080 -15.4729 -15.2762
    14.0767  14.5597  15.4702  15.4743  16.7317  17.1347  18.0224  18.3740
    19.7732  20.9835

          k = 0.2000-0.5000-0.5000 (  4760 PWs)   bands (ev):

   -69.2015 -39.0315 -35.3127 -35.3127 -35.2784 -15.5031 -15.5031 -15.2732
    14.0016  14.5076  15.4085  15.4085  17.3542  17.3542  17.7787  18.1832
    19.8814  21.2322

          k = 0.3000 0.3000 0.3000 (  4788 PWs)   bands (ev):

   -69.2027 -39.0483 -35.2960 -35.2960 -35.2932 -15.4012 -15.3949 -15.3949
    14.3112  15.2845  15.5692  15.5692  15.6451  15.6451  18.6739  18.6739
    19.9778  19.9778

          k = 0.3000 0.3000 0.4000 (  4795 PWs)   bands (ev):

   -69.2019 -39.0381 -35.3064 -35.2948 -35.2945 -15.4781 -15.3888 -15.3873
    14.6591  15.0417  15.4870  15.5721  15.7249  16.0893  18.3374  18.4732
    19.9113  20.5336

          k = 0.3000 0.3000-0.5000 (  4788 PWs)   bands (ev):

   -69.2016 -39.0343 -35.3106 -35.2951 -35.2939 -15.5089 -15.3865 -15.3829
    14.6717  14.9569  15.4577  15.5391  15.8953  16.4305  18.0381  18.4034
    19.8973  20.7764

          k = 0.3000 0.4000 0.4000 (  4777 PWs)   bands (ev):

   -69.2011 -39.0280 -35.3066 -35.3059 -35.2935 -15.4695 -15.4679 -15.3805
    14.7729  15.0335  15.4273  15.5515  16.0093  16.2107  18.1566  18.2607
    20.2447  20.8072

          k = 0.3000 0.4000-0.5000 (  4790 PWs)   bands (ev):

   -69.2007 -39.0241 -35.3106 -35.3062 -35.2931 -15.4993 -15.4652 -15.3777
    14.7238  14.9989  15.4333  15.4489  16.2186  16.5006  17.9308  18.2041
    20.3026  21.0373

          k = 0.3000-0.5000-0.5000 (  4772 PWs)   bands (ev):

   -69.2004 -39.0202 -35.3106 -35.3106 -35.2926 -15.4957 -15.4957 -15.3750
    14.6880  14.9964  15.3719  15.3719  16.5963  16.5963  17.7909  18.1050
    20.4062  21.2577

          k = 0.4000 0.4000 0.4000 (  4767 PWs)   bands (ev):

   -69.2002 -39.0183 -35.3052 -35.3050 -35.3050 -15.4619 -15.4619 -15.4610
    15.0741  15.4319  15.4319  15.6544  15.8424  15.8424  18.0460  18.0460
    20.8385  20.8385

          k = 0.4000 0.4000-0.5000 (  4760 PWs)   bands (ev):

   -69.1999 -39.0146 -35.3094 -35.3048 -35.3044 -15.4923 -15.4595 -15.4581
    15.1910  15.2360  15.5115  15.6245  15.8260  16.1000  17.8748  18.0170
    20.8517  21.1220

          k = 0.4000-0.5000-0.5000 (  4764 PWs)   bands (ev):

   -69.1996 -39.0110 -35.3090 -35.3090 -35.3040 -15.4896 -15.4896 -15.4564
    15.3773  15.3958  15.4134  15.4134  16.0280  16.0280  17.8007  17.9323
    20.9983  21.2784

          k =-0.5000-0.5000-0.5000 (  4776 PWs)   bands (ev):

   -69.1993 -39.0075 -35.3084 -35.3084 -35.3084 -15.4873 -15.4873 -15.4873
    15.5177  15.5177  15.5177  15.7399  15.7399  15.7399  17.8045  17.8045
    21.2864  21.2864

     the Fermi energy is    17.7493 ev

!    total energy              =    -448.58668561 Ry
     estimated scf accuracy    <          7.9E-09 Ry
     smearing contrib. (-TS)   =      -0.00005142 Ry
     internal energy E=F+TS    =    -448.58663419 Ry

     The total energy is F=E-TS. E is the sum of the following terms:
     one-electron contribution =    -151.36095665 Ry
     hartree contribution      =      91.64018934 Ry
     xc contribution           =     -52.89151968 Ry
     ewald contribution        =    -259.82070277 Ry
     one-center paw contrib.   =     -76.15364443 Ry

     convergence has been achieved in  27 iterations

     negative rho (up, down):  9.815E-04 0.000E+00

     Forces acting on atoms (cartesian axes, Ry/au):

     atom    1 type  1   force =     0.00000000    0.00000000    0.00000000
     atom    2 type  2   force =     0.00000000    0.00000000    0.00000000

     Total force =     0.000000     Total SCF correction =     0.000000


     Computing stress (Cartesian axis) and pressure


     negative rho (up, down):  9.815E-04 0.000E+00
          total   stress  (Ry/bohr**3)                   (kbar)     P=       29.35
   0.00019955   0.00000000   0.00000000           29.35        0.00        0.00
   0.00000000   0.00019955   0.00000000            0.00       29.35        0.00
   0.00000000   0.00000000   0.00019955            0.00        0.00       29.35


     BFGS Geometry Optimization
     Energy error            =      5.1E-04 Ry
     Gradient error          =      0.0E+00 Ry/Bohr
     Cell gradient error     =      2.9E+01 kbar

     number of scf cycles    =   1
     number of bfgs steps    =   0

     enthalpy           new  =    -448.5866856082 Ry

     new trust radius        =       0.0130571792 bohr
     new conv_thr            =       0.0000000100 Ry

     new unit-cell volume =    173.83495 a.u.^3 (    25.75968 Ang^3 )
     density =      6.68556 g/cm^3

CELL_PARAMETERS (alat=  5.55330037)
   1.004988760   0.000000000   0.000000000
   0.000000000   1.004988760   0.000000000
   0.000000000   0.000000000   1.004988760

ATOMIC_POSITIONS (crystal)
Fe               0.5000000000        0.5000000000        0.5000000000
Ti               0.0000000000        0.0000000000        0.0000000000



     Writing config-only to output data dir ./out/TiFe.save/ :
     XML data file
     NEW-OLD atomic charge density approx. for the potential
     New effective cutoffs (rho, wfc): 1385.34  138.61

     Check: negative core charge=   -0.000003

     negative rho (up, down):  9.909E-04 0.000E+00

     total cpu time spent up to now is      102.1 secs

     Self-consistent Calculation

     iteration #  1     ecut=   140.00 Ry     beta= 0.70
     Davidson diagonalization with overlap
     ethr =  1.00E-06,  avg # of iterations =  5.1

     negative rho (up, down):  9.853E-04 0.000E+00

     total cpu time spent up to now is      109.7 secs

     total energy              =    -448.58687001 Ry
     estimated scf accuracy    <       0.00005256 Ry

     iteration #  2     ecut=   140.00 Ry     beta= 0.70
     Davidson diagonalization with overlap
     ethr =  1.88E-07,  avg # of iterations =  4.4

     negative rho (up, down):  9.818E-04 0.000E+00

     total cpu time spent up to now is      114.4 secs

     total energy              =    -448.58664720 Ry
     estimated scf accuracy    <       0.00484665 Ry

     iteration #  3     ecut=   140.00 Ry     beta= 0.70
     Davidson diagonalization with overlap
     ethr =  1.88E-07,  avg # of iterations =  4.7

     negative rho (up, down):  9.834E-04 0.000E+00

     total cpu time spent up to now is      118.5 secs

     total energy              =    -448.58692783 Ry
     estimated scf accuracy    <       0.00005087 Ry

     iteration #  4     ecut=   140.00 Ry     beta= 0.70
     Davidson diagonalization with overlap
     ethr =  1.82E-07,  avg # of iterations =  1.1

     negative rho (up, down):  9.830E-04 0.000E+00

     total cpu time spent up to now is      121.6 secs

     total energy              =    -448.58693087 Ry
     estimated scf accuracy    <       0.00000699 Ry

     iteration #  5     ecut=   140.00 Ry     beta= 0.70
     Davidson diagonalization with overlap
     ethr =  2.50E-08,  avg # of iterations =  3.3

     negative rho (up, down):  9.827E-04 0.000E+00

     total cpu time spent up to now is      125.1 secs

     total energy              =    -448.58693173 Ry
     estimated scf accuracy    <       0.00000005 Ry

     iteration #  6     ecut=   140.00 Ry     beta= 0.70
     Davidson diagonalization with overlap
     ethr =  1.65E-10,  avg # of iterations =  6.4

     negative rho (up, down):  9.827E-04 0.000E+00

     total cpu time spent up to now is      130.7 secs

     total energy              =    -448.58693189 Ry
     estimated scf accuracy    <       0.00000010 Ry

     iteration #  7     ecut=   140.00 Ry     beta= 0.70
     Davidson diagonalization with overlap
     ethr =  1.65E-10,  avg # of iterations =  2.0

     negative rho (up, down):  9.826E-04 0.000E+00

     total cpu time spent up to now is      134.3 secs

     total energy              =    -448.58693188 Ry
     estimated scf accuracy    <       0.00000006 Ry

     iteration #  8     ecut=   140.00 Ry     beta= 0.70
     Davidson diagonalization with overlap
     ethr =  1.65E-10,  avg # of iterations =  1.0

     negative rho (up, down):  9.827E-04 0.000E+00

     total cpu time spent up to now is      137.2 secs

     End of self-consistent calculation

          k = 0.0000 0.0000 0.0000 (  4801 PWs)   bands (ev):

   -69.5027 -39.4543 -35.5641 -35.5641 -35.5641 -15.5543 -15.5543 -15.5543
     9.8969  13.6425  13.6425  16.3746  16.3746  16.3746  18.6836  18.6836
    20.5921  20.5921

          k = 0.0000 0.0000 0.0995 (  4813 PWs)   bands (ev):

   -69.5024 -39.4518 -35.5670 -35.5637 -35.5637 -15.5878 -15.5523 -15.5523
    10.1029  13.7413  13.7468  16.3594  16.3594  16.4192  18.5593  18.7295
    20.2990  20.2990

          k = 0.0000 0.0000 0.1990 (  4805 PWs)   bands (ev):

   -69.5016 -39.4454 -35.5746 -35.5625 -35.5625 -15.6746 -15.5470 -15.5470
    10.6968  14.0070  14.0287  16.3265  16.3265  16.5421  18.2032  18.8233
    19.6455  19.6455

          k = 0.0000 0.0000 0.2985 (  4801 PWs)   bands (ev):

   -69.5006 -39.4375 -35.5839 -35.5611 -35.5611 -15.7804 -15.5404 -15.5404
    11.6047  14.2629  14.4731  16.3026  16.3026  16.7090  17.6699  18.8044
    18.9681  18.9681

          k = 0.0000 0.0000 0.3980 (  4817 PWs)   bands (ev):

   -69.4998 -39.4311 -35.5913 -35.5600 -35.5600 -15.8650 -15.5351 -15.5351
    12.6834  14.2490  14.9907  16.3027  16.3027  16.8599  17.0773  18.4751
    18.4751  18.4997

          k = 0.0000 0.0000-0.4975 (  4828 PWs)   bands (ev):

   -69.4995 -39.4286 -35.5942 -35.5596 -35.5596 -15.8970 -15.5331 -15.5331
    13.5677  13.8089  15.2936  16.3093  16.3093  16.7450  16.9223  18.2656
    18.2931  18.2931

          k = 0.0000 0.0995 0.0995 (  4801 PWs)   bands (ev):

   -69.5021 -39.4492 -35.5680 -35.5654 -35.5632 -15.5888 -15.5819 -15.5502
    10.3040  13.8326  13.8535  16.2630  16.3332  16.5284  18.5453  18.6957
    19.9890  20.0065

          k = 0.0000 0.0995 0.1990 (  4803 PWs)   bands (ev):

   -69.5013 -39.4423 -35.5751 -35.5655 -35.5621 -15.6715 -15.5788 -15.5446
    10.8821  14.0766  14.1393  16.1718  16.2712  16.6499  18.2810  18.7782
    19.3804  19.4452

          k = 0.0000 0.0995 0.2985 (  4796 PWs)   bands (ev):

   -69.5003 -39.4339 -35.5846 -35.5647 -35.5607 -15.7761 -15.5712 -15.5377
    11.7596  14.3308  14.5450  16.1313  16.2054  16.7069  17.8433  18.6012
    18.9719  18.9909

          k = 0.0000 0.0995 0.3980 (  4792 PWs)   bands (ev):

   -69.4995 -39.4270 -35.5923 -35.5641 -35.5596 -15.8596 -15.5650 -15.5321
    12.7895  14.3023  15.0121  16.1441  16.1526  16.6576  17.3943  18.1662
    18.7251  18.8349

          k = 0.0000 0.0995-0.4975 (  4802 PWs)   bands (ev):

   -69.4992 -39.4244 -35.5952 -35.5639 -35.5592 -15.8913 -15.5626 -15.5300
    13.6058  13.8891  15.2821  16.0823  16.1852  16.5987  17.1985  17.9763
    18.6677  18.6976

          k = 0.0000 0.1990 0.1990 (  4785 PWs)   bands (ev):

   -69.5005 -39.4344 -35.5782 -35.5714 -35.5610 -15.6713 -15.6535 -15.5383
    11.4072  14.2186  14.4670  15.9715  16.1553  16.6820  18.3725  18.7391
    18.8305  19.1738

          k = 0.0000 0.1990 0.2985 (  4789 PWs)   bands (ev):

   -69.4995 -39.4245 -35.5867 -35.5740 -35.5597 -15.7648 -15.6509 -15.5305
    12.1771  14.3375  14.8944  15.8437  16.0720  16.5148  18.2035  18.3296
    18.9052  19.1150

          k = 0.0000 0.1990 0.3980 (  4794 PWs)   bands (ev):

   -69.4987 -39.4165 -35.5947 -35.5750 -35.5586 -15.8456 -15.6426 -15.5242
    13.0216  14.2509  15.2815  15.8278  16.1069  16.2428  17.8956  18.0703
    19.0408  19.2399

          k = 0.0000 0.1990-0.4975 (  4794 PWs)   bands (ev):

   -69.4984 -39.4134 -35.5978 -35.5753 -35.5582 -15.8762 -15.6394 -15.5218
    13.5926  13.9719  15.4488  15.8873  16.0669  16.1792  17.8244  17.8850
    19.0688  19.3367

          k = 0.0000 0.2985 0.2985 (  4797 PWs)   bands (ev):

   -69.4985 -39.4128 -35.5908 -35.5840 -35.5585 -15.7583 -15.7408 -15.5216
    12.7163  14.2259  15.4230  15.6165  16.1102  16.1612  18.1977  18.5174
    18.7961  19.4227

          k = 0.0000 0.2985 0.3980 (  4792 PWs)   bands (ev):

   -69.4977 -39.4033 -35.5978 -35.5882 -35.5574 -15.8282 -15.7374 -15.5144
    13.1876  14.0301  15.5195  15.8185  15.8777  16.4651  18.0305  18.5367
    19.0010  19.7678

          k = 0.0000 0.2985-0.4975 (  4800 PWs)   bands (ev):

   -69.4974 -39.3997 -35.6011 -35.5893 -35.5571 -15.8576 -15.7332 -15.5116
    13.4127  13.8878  15.5594  15.6181  16.0270  16.8588  17.7735  18.5408
    19.1734  19.9634

          k = 0.0000 0.3980 0.3980 (  4794 PWs)   bands (ev):

   -69.4969 -39.3927 -35.6010 -35.5984 -35.5565 -15.8170 -15.8103 -15.5064
    13.2201  13.8328  15.3357  15.4924  16.5959  17.0345  18.2559  18.7182
    18.9364  20.1880

          k = 0.0000 0.3980-0.4975 (  4776 PWs)   bands (ev):

   -69.4966 -39.3886 -35.6039 -35.6006 -35.5561 -15.8424 -15.8082 -15.5034
    13.2124  13.7590  15.3180  15.3294  16.8796  17.7779  17.8105  18.8534
    19.0009  20.4034

          k = 0.0000-0.4975-0.4975 (  4780 PWs)   bands (ev):

   -69.4963 -39.3843 -35.6049 -35.6049 -35.5557 -15.8367 -15.8367 -15.5002
    13.1315  13.7051  15.2303  15.2303  17.4568  17.8776  18.3727  18.3727
    19.1215  20.5623

          k = 0.0995 0.0995 0.0995 (  4812 PWs)   bands (ev):

   -69.5018 -39.4464 -35.5675 -35.5675 -35.5641 -15.5890 -15.5799 -15.5799
    10.5010  13.9403  13.9403  16.2343  16.2343  16.6079  18.6083  18.6083
    19.5271  20.2736

          k = 0.0995 0.0995 0.1990 (  4789 PWs)   bands (ev):

   -69.5010 -39.4392 -35.5753 -35.5664 -35.5642 -15.6684 -15.5780 -15.5744
    11.0660  14.1902  14.2059  16.1092  16.1597  16.6634  18.3587  18.7378
    19.0714  19.6180

          k = 0.0995 0.0995 0.2985 (  4799 PWs)   bands (ev):

   -69.5000 -39.4303 -35.5851 -35.5649 -35.5640 -15.7719 -15.5691 -15.5677
    11.9179  14.4506  14.5682  16.0588  16.0592  16.5954  17.9933  18.5972
    18.9565  19.0412

          k = 0.0995 0.0995 0.3980 (  4799 PWs)   bands (ev):

   -69.4992 -39.4231 -35.5930 -35.5638 -35.5638 -15.8545 -15.5623 -15.5618
    12.9061  14.3925  14.9932  15.9312  16.1354  16.4790  17.6255  18.2660
    18.4938  19.2218

          k = 0.0995 0.0995-0.4975 (  4804 PWs)   bands (ev):

   -69.4989 -39.4203 -35.5960 -35.5637 -35.5633 -15.8859 -15.5602 -15.5590
    13.6688  13.9870  15.2387  15.8251  16.2564  16.4019  17.4595  18.0442
    18.3292  19.3423

          k = 0.0995 0.1990 0.1990 (  4806 PWs)   bands (ev):

   -69.5002 -39.4310 -35.5777 -35.5721 -35.5643 -15.6674 -15.6514 -15.5694
    11.5861  14.3452  14.5182  15.9259  16.0308  16.5340  18.4544  18.7144
    18.8728  19.3386

          k = 0.0995 0.1990 0.2985 (  4804 PWs)   bands (ev):

   -69.4992 -39.4209 -35.5867 -35.5740 -35.5636 -15.7609 -15.6480 -15.5611
    12.3446  14.4842  14.8968  15.7896  15.9376  16.2858  18.3208  18.5080
    18.8921  19.2374

          k = 0.0995 0.1990 0.3980 (  4796 PWs)   bands (ev):

   -69.4984 -39.4127 -35.5951 -35.5746 -35.5628 -15.8412 -15.6398 -15.5542
    13.1671  14.3956  15.1907  15.7110  15.9981  16.1537  18.0831  18.1561
    18.7014  19.6914

          k = 0.0995 0.1990-0.4975 (  4804 PWs)   bands (ev):

   -69.4981 -39.4095 -35.5983 -35.5748 -35.5625 -15.8717 -15.6366 -15.5516
    13.7143  14.1092  15.3195  15.6681  16.0168  16.2407  17.8840  18.0458
    18.5617  20.0532

          k = 0.0995 0.2985 0.2985 (  4792 PWs)   bands (ev):

   -69.4982 -39.4092 -35.5902 -35.5842 -35.5625 -15.7541 -15.7385 -15.5520
    12.8927  14.3732  15.4161  15.5736  15.9238  15.9718  18.3012  18.6690
    18.7541  19.6389

          k = 0.0995 0.2985 0.3980 (  4787 PWs)   bands (ev):

   -69.4974 -39.3997 -35.5977 -35.5879 -35.5616 -15.8247 -15.7347 -15.5446
    13.3565  14.1771  15.4688  15.6252  15.8904  16.3050  18.0669  18.6113
    18.8054  20.1683

          k = 0.0995 0.2985-0.4975 (  4766 PWs)   bands (ev):

   -69.4971 -39.3961 -35.6011 -35.5888 -35.5612 -15.8541 -15.7307 -15.5417
    13.5664  14.0401  15.4861  15.5017  15.9857  16.7165  17.7943  18.6701
    18.6951  20.3477

          k = 0.0995 0.3980 0.3980 (  4780 PWs)   bands (ev):

   -69.4966 -39.3892 -35.6004 -35.5981 -35.5606 -15.8140 -15.8081 -15.5367
    13.3870  13.9823  15.3041  15.4299  16.5226  16.8197  18.1425  18.4836
    19.0393  20.4589

          k = 0.0995 0.3980-0.4975 (  4772 PWs)   bands (ev):

   -69.4963 -39.3852 -35.6034 -35.6000 -35.5602 -15.8399 -15.8059 -15.5337
    13.3741  13.9109  15.2841  15.2917  16.7796  17.4805  17.7702  18.4459
    19.1078  20.5625

          k = 0.0995-0.4975-0.4975 (  4772 PWs)   bands (ev):

   -69.4960 -39.3811 -35.6043 -35.6043 -35.5599 -15.8344 -15.8344 -15.5307
    13.2948  13.8563  15.2049  15.2049  17.4604  17.8735  17.8735  17.8788
    19.2239  21.2024

          k = 0.1990 0.1990 0.1990 (  4812 PWs)   bands (ev):

   -69.4994 -39.4223 -35.5764 -35.5764 -35.5703 -15.6615 -15.6457 -15.6457
    12.0877  14.6602  14.6602  15.8078  15.8078  16.1486  18.6391  18.6391
    19.1237  19.5872

          k = 0.1990 0.1990 0.2985 (  4790 PWs)   bands (ev):

   -69.4984 -39.4115 -35.5869 -35.5749 -35.5726 -15.7508 -15.6422 -15.6386
    12.8000  14.8580  14.8989  15.6581  15.6820  15.8476  18.5198  18.6367
    18.9864  19.5789

          k = 0.1990 0.1990 0.3980 (  4794 PWs)   bands (ev):

   -69.4976 -39.4027 -35.5960 -35.5738 -35.5736 -15.8298 -15.6329 -15.6317
    13.5243  14.6733  15.0568  15.5148  15.7725  15.9861  18.2311  18.3858
    18.6046  20.1270

          k = 0.1990 0.1990-0.4975 (  4792 PWs)   bands (ev):

   -69.4973 -39.3993 -35.5995 -35.5742 -35.5731 -15.8598 -15.6308 -15.6276
    13.9605  14.3691  15.1627  15.4343  15.8483  16.2096  17.8991  18.3142
    18.4886  20.2339

          k = 0.1990 0.2985 0.2985 (  4791 PWs)   bands (ev):

   -69.4974 -39.3998 -35.5889 -35.5849 -35.5731 -15.7432 -15.7327 -15.6309
    13.3815  14.7608  15.3850  15.4708  15.5053  15.6139  18.4106  18.5966
    19.0873  19.8379

          k = 0.1990 0.2985 0.3980 (  4782 PWs)   bands (ev):

   -69.4966 -39.3903 -35.5973 -35.5871 -35.5725 -15.8157 -15.7277 -15.6231
    13.8215  14.5391  15.3216  15.3727  15.7131  15.9969  18.1101  18.3676
    19.0676  20.1669

          k = 0.1990 0.2985-0.4975 (  4780 PWs)   bands (ev):

   -69.4963 -39.3867 -35.6010 -35.5875 -35.5722 -15.8451 -15.7240 -15.6200
    13.9810  14.4067  15.2812  15.3414  15.8102  16.3879  17.7967  18.2753
    19.0398  20.3361

          k = 0.1990 0.3980 0.3980 (  4789 PWs)   bands (ev):

   -69.4958 -39.3803 -35.5990 -35.5974 -35.5715 -15.8062 -15.8022 -15.6155
    13.8585  14.3631  15.2301  15.3026  16.2872  16.2877  18.0433  18.0906
    19.3672  20.4220

          k = 0.1990 0.3980-0.4975 (  4784 PWs)   bands (ev):

   -69.4955 -39.3764 -35.6023 -35.5986 -35.5711 -15.8331 -15.7998 -15.6126
    13.8304  14.3013  15.2092  15.2119  16.4330  16.8262  17.7064  18.0531
    19.4322  20.6171

          k = 0.1990-0.4975-0.4975 (  4760 PWs)   bands (ev):

   -69.4952 -39.3725 -35.6028 -35.6028 -35.5706 -15.8286 -15.8286 -15.6098
    13.7587  14.2509  15.1483  15.1483  17.0418  17.0418  17.4700  17.8649
    19.5375  20.8606

          k = 0.2985 0.2985 0.2985 (  4788 PWs)   bands (ev):

   -69.4965 -39.3881 -35.5872 -35.5872 -35.5847 -15.7315 -15.7254 -15.7254
    14.0215  15.0237  15.3077  15.3077  15.3723  15.3723  18.3481  18.3481
    19.6336  19.6336

          k = 0.2985 0.2985 0.3980 (  4795 PWs)   bands (ev):

   -69.4957 -39.3786 -35.5970 -35.5861 -35.5858 -15.8046 -15.7196 -15.7184
    14.3865  14.7797  15.2272  15.2998  15.4478  15.8087  18.0164  18.1521
    19.5686  20.1770

          k = 0.2985 0.2985-0.4975 (  4788 PWs)   bands (ev):

   -69.4954 -39.3750 -35.6010 -35.5863 -35.5853 -15.8339 -15.7173 -15.7142
    14.4123  14.6928  15.1983  15.2673  15.6110  16.1401  17.7219  18.0839
    19.5550  20.4139

          k = 0.2985 0.3980 0.3980 (  4777 PWs)   bands (ev):

   -69.4949 -39.3691 -35.5971 -35.5965 -35.5849 -15.7965 -15.7949 -15.7118
    14.5152  14.7677  15.1649  15.2818  15.7235  15.9253  17.8398  17.9427
    19.8945  20.4450

          k = 0.2985 0.3980-0.4975 (  4790 PWs)   bands (ev):

   -69.4946 -39.3655 -35.6009 -35.5968 -35.5845 -15.8248 -15.7923 -15.7091
    14.4692  14.7348  15.1709  15.1821  15.9292  16.2076  17.6181  17.8872
    19.9510  20.6699

          k = 0.2985-0.4975-0.4975 (  4772 PWs)   bands (ev):

   -69.4943 -39.3618 -35.6009 -35.6009 -35.5840 -15.8213 -15.8213 -15.7065
    14.4349  14.7305  15.1099  15.1099  16.3011  16.3011  17.4818  17.7890
    20.0520  20.8854

          k = 0.3980 0.3980 0.3980 (  4767 PWs)   bands (ev):

   -69.4941 -39.3601 -35.5958 -35.5956 -35.5956 -15.7891 -15.7891 -15.7884
    14.8168  15.1661  15.1661  15.3673  15.5667  15.5667  17.7320  17.7320
    20.4757  20.4757

          k = 0.3980 0.3980-0.4975 (  4760 PWs)   bands (ev):

   -69.4938 -39.3566 -35.5998 -35.5955 -35.5951 -15.8180 -15.7868 -15.7856
    14.9317  14.9710  15.2374  15.3594  15.5420  15.8182  17.5638  17.7038
    20.4885  20.7527

          k = 0.3980-0.4975-0.4975 (  4764 PWs)   bands (ev):

   -69.4935 -39.3532 -35.5994 -35.5994 -35.5947 -15.8155 -15.8155 -15.7839
    15.1045  15.1324  15.1467  15.1467  15.7477  15.7477  17.4914  17.6203
    20.6317  20.9056

          k =-0.4975-0.4975-0.4975 (  4776 PWs)   bands (ev):

   -69.4932 -39.3499 -35.5988 -35.5988 -35.5988 -15.8132 -15.8132 -15.8132
    15.2426  15.2426  15.2426  15.4716  15.4716  15.4716  17.4950  17.4950
    20.9133  20.9133

     the Fermi energy is    17.4444 ev

!    total energy              =    -448.58693188 Ry
     estimated scf accuracy    <          3.1E-09 Ry
     smearing contrib. (-TS)   =      -0.00007636 Ry
     internal energy E=F+TS    =    -448.58685551 Ry

     The total energy is F=E-TS. E is the sum of the following terms:
     one-electron contribution =    -153.35040503 Ry
     hartree contribution      =      92.31311954 Ry
     xc contribution           =     -52.86527081 Ry
     ewald contribution        =    -258.53095386 Ry
     one-center paw contrib.   =     -76.15334536 Ry

     convergence has been achieved in   8 iterations

     negative rho (up, down):  9.827E-04 0.000E+00

     Forces acting on atoms (cartesian axes, Ry/au):

     atom    1 type  1   force =     0.00000000    0.00000000    0.00000000
     atom    2 type  2   force =     0.00000000    0.00000000    0.00000000

     Total force =     0.000000     Total SCF correction =     0.000000


     Computing stress (Cartesian axis) and pressure


     negative rho (up, down):  9.827E-04 0.000E+00
          total   stress  (Ry/bohr**3)                   (kbar)     P=       -0.52
  -0.00000354   0.00000000   0.00000000           -0.52        0.00        0.00
   0.00000000  -0.00000354   0.00000000            0.00       -0.52        0.00
   0.00000000   0.00000000  -0.00000354            0.00        0.00       -0.52

     Energy error            =      2.5E-04 Ry
     Gradient error          =      0.0E+00 Ry/Bohr
     Cell gradient error     =      5.2E-01 kbar

     number of scf cycles    =   2
     number of bfgs steps    =   1

     enthalpy           old  =    -448.5866856082 Ry
     enthalpy           new  =    -448.5869318764 Ry

     CASE: enthalpy          _new < enthalpy          _old

     new trust radius        =       0.0002301116 bohr
     new conv_thr            =            1.0E-10 Ry

     new unit-cell volume =    173.78945 a.u.^3 (    25.75294 Ang^3 )
     density =      6.68731 g/cm^3

CELL_PARAMETERS (alat=  5.55330037)
   1.004901060   0.000000000   0.000000000
   0.000000000   1.004901060   0.000000000
   0.000000000   0.000000000   1.004901060

ATOMIC_POSITIONS (crystal)
Fe               0.5000000000        0.5000000000        0.5000000000
Ti               0.0000000000        0.0000000000        0.0000000000



     Writing config-only to output data dir ./out/TiFe.save/ :
     XML data file
     NEW-OLD atomic charge density approx. for the potential
     New effective cutoffs (rho, wfc): 1385.58  138.63

     Check: negative core charge=   -0.000003

     negative rho (up, down):  9.825E-04 0.000E+00

     total cpu time spent up to now is      141.1 secs

     Self-consistent Calculation

     iteration #  1     ecut=   140.00 Ry     beta= 0.70
     Davidson diagonalization with overlap
     ethr =  1.00E-06,  avg # of iterations =  2.0

     Threshold (ethr) on eigenvalues was too large:
     Diagonalizing with lowered threshold

     Davidson diagonalization with overlap
     ethr =  3.44E-09,  avg # of iterations =  1.0

     negative rho (up, down):  9.821E-04 0.000E+00

     total cpu time spent up to now is      148.2 secs

     total energy              =    -448.58693109 Ry
     estimated scf accuracy    <       0.00000106 Ry

     iteration #  2     ecut=   140.00 Ry     beta= 0.70
     Davidson diagonalization with overlap
     ethr =  3.80E-09,  avg # of iterations =  4.8

     negative rho (up, down):  9.826E-04 0.000E+00

     total cpu time spent up to now is      152.6 secs

     total energy              =    -448.58692435 Ry
     estimated scf accuracy    <       0.00015679 Ry

     iteration #  3     ecut=   140.00 Ry     beta= 0.70
     Davidson diagonalization with overlap
     ethr =  3.80E-09,  avg # of iterations =  4.8

     negative rho (up, down):  9.826E-04 0.000E+00

     total cpu time spent up to now is      157.2 secs

     total energy              =    -448.58693193 Ry
     estimated scf accuracy    <       0.00000002 Ry

     iteration #  4     ecut=   140.00 Ry     beta= 0.70
     Davidson diagonalization with overlap
     ethr =  7.32E-11,  avg # of iterations =  5.2

     negative rho (up, down):  9.826E-04 0.000E+00

     total cpu time spent up to now is      162.0 secs

     total energy              =    -448.58693195 Ry
     estimated scf accuracy    <       0.00000001 Ry

     iteration #  5     ecut=   140.00 Ry     beta= 0.70
     Davidson diagonalization with overlap
     ethr =  5.16E-11,  avg # of iterations =  1.0

     negative rho (up, down):  9.826E-04 0.000E+00

     total cpu time spent up to now is      165.0 secs

     total energy              =    -448.58693195 Ry
     estimated scf accuracy    <          4.6E-09 Ry

     iteration #  6     ecut=   140.00 Ry     beta= 0.70
     Davidson diagonalization with overlap
     ethr =  1.64E-11,  avg # of iterations =  1.8

     negative rho (up, down):  9.826E-04 0.000E+00

     total cpu time spent up to now is      168.1 secs

     End of self-consistent calculation

          k = 0.0000 0.0000 0.0000 (  4801 PWs)   bands (ev):

   -69.4976 -39.4485 -35.5590 -35.5590 -35.5590 -15.5485 -15.5485 -15.5485
     9.9013  13.6464  13.6464  16.3796  16.3796  16.3796  18.6893  18.6893
    20.5985  20.5985

          k = 0.0000 0.0000 0.0995 (  4813 PWs)   bands (ev):

   -69.4973 -39.4460 -35.5619 -35.5585 -35.5585 -15.5819 -15.5464 -15.5464
    10.1074  13.7452  13.7507  16.3644  16.3644  16.4242  18.5650  18.7352
    20.3053  20.3053

          k = 0.0000 0.0000 0.1990 (  4805 PWs)   bands (ev):

   -69.4964 -39.4396 -35.5695 -35.5574 -35.5574 -15.6688 -15.5411 -15.5411
    10.7014  14.0111  14.0327  16.3314  16.3314  16.5472  18.2087  18.8291
    19.6515  19.6515

          k = 0.0000 0.0000 0.2985 (  4801 PWs)   bands (ev):

   -69.4954 -39.4317 -35.5788 -35.5560 -35.5560 -15.7748 -15.5346 -15.5346
    11.6095  14.2673  14.4773  16.3076  16.3076  16.7141  17.6752  18.8102
    18.9739  18.9739

          k = 0.0000 0.0000 0.3980 (  4817 PWs)   bands (ev):

   -69.4946 -39.4252 -35.5862 -35.5549 -35.5549 -15.8594 -15.5292 -15.5292
    12.6884  14.2537  14.9950  16.3077  16.3077  16.8650  17.0823  18.4806
    18.4806  18.5056

          k = 0.0000 0.0000-0.4976 (  4828 PWs)   bands (ev):

   -69.4943 -39.4228 -35.5891 -35.5544 -35.5544 -15.8915 -15.5272 -15.5272
    13.5727  13.8137  15.2981  16.3143  16.3143  16.7499  16.9275  18.2715
    18.2986  18.2986

          k = 0.0000 0.0995 0.0995 (  4801 PWs)   bands (ev):

   -69.4969 -39.4434 -35.5629 -35.5603 -35.5581 -15.5830 -15.5761 -15.5443
    10.3085  13.8366  13.8575  16.2679  16.3381  16.5334  18.5510  18.7014
    19.9951  20.0126

          k = 0.0000 0.0995 0.1990 (  4803 PWs)   bands (ev):

   -69.4961 -39.4365 -35.5700 -35.5603 -35.5570 -15.6658 -15.5729 -15.5387
    10.8867  14.0807  14.1434  16.1767  16.2762  16.6550  18.2865  18.7840
    19.3863  19.4511

          k = 0.0000 0.0995 0.2985 (  4796 PWs)   bands (ev):

   -69.4951 -39.4281 -35.5795 -35.5596 -35.5556 -15.7704 -15.5653 -15.5318
    11.7644  14.3351  14.5493  16.1362  16.2103  16.7121  17.8487  18.6070
    18.9776  18.9967

          k = 0.0000 0.0995 0.3980 (  4792 PWs)   bands (ev):

   -69.4943 -39.4212 -35.5872 -35.5590 -35.5545 -15.8540 -15.5591 -15.5262
    12.7944  14.3069  15.0165  16.1490  16.1575  16.6627  17.3995  18.1718
    18.7307  18.8408

          k = 0.0000 0.0995-0.4976 (  4802 PWs)   bands (ev):

   -69.4940 -39.4186 -35.5901 -35.5588 -35.5541 -15.8857 -15.5568 -15.5241
    13.6106  13.8940  15.2866  16.0872  16.1901  16.6037  17.2035  17.9819
    18.6734  18.7034

          k = 0.0000 0.1990 0.1990 (  4785 PWs)   bands (ev):

   -69.4953 -39.4285 -35.5731 -35.5663 -35.5559 -15.6656 -15.6477 -15.5324
    11.4119  14.2228  14.4713  15.9763  16.1602  16.6871  18.3781  18.7448
    18.8362  19.1796

          k = 0.0000 0.1990 0.2985 (  4789 PWs)   bands (ev):

   -69.4943 -39.4186 -35.5816 -35.5689 -35.5546 -15.7591 -15.6451 -15.5246
    12.1819  14.3418  14.8989  15.8484  16.0769  16.5198  18.2090  18.3352
    18.9110  19.1208

          k = 0.0000 0.1990 0.3980 (  4794 PWs)   bands (ev):

   -69.4935 -39.4106 -35.5896 -35.5699 -35.5535 -15.8399 -15.6368 -15.5183
    13.0264  14.2554  15.2861  15.8326  16.1119  16.2477  17.9010  18.0758
    19.0467  19.2458

          k = 0.0000 0.1990-0.4976 (  4794 PWs)   bands (ev):

   -69.4932 -39.4076 -35.5927 -35.5702 -35.5531 -15.8706 -15.6336 -15.5159
    13.5973  13.9766  15.4534  15.8921  16.0718  16.1843  17.8299  17.8904
    19.0748  19.3426

          k = 0.0000 0.2985 0.2985 (  4797 PWs)   bands (ev):

   -69.4934 -39.4070 -35.5857 -35.5789 -35.5533 -15.7526 -15.7350 -15.5157
    12.7210  14.2302  15.4278  15.6211  16.1152  16.1661  18.2033  18.5230
    18.8019  19.4287

          k = 0.0000 0.2985 0.3980 (  4792 PWs)   bands (ev):

   -69.4926 -39.3975 -35.5928 -35.5832 -35.5523 -15.8226 -15.7317 -15.5084
    13.1921  14.0345  15.5241  15.8233  15.8826  16.4704  18.0361  18.5423
    19.0069  19.7738

          k = 0.0000 0.2985-0.4976 (  4800 PWs)   bands (ev):

   -69.4923 -39.3939 -35.5961 -35.5842 -35.5519 -15.8520 -15.7275 -15.5057
    13.4170  13.8923  15.5641  15.6228  16.0320  16.8642  17.7790  18.5463
    19.1795  19.9695

          k = 0.0000 0.3980 0.3980 (  4794 PWs)   bands (ev):

   -69.4918 -39.3868 -35.5959 -35.5933 -35.5514 -15.8113 -15.8047 -15.5005
    13.2243  13.8372  15.3403  15.4970  16.6011  17.0400  18.2616  18.7241
    18.9422  20.1942

          k = 0.0000 0.3980-0.4976 (  4776 PWs)   bands (ev):

   -69.4915 -39.3827 -35.5988 -35.5955 -35.5510 -15.8368 -15.8026 -15.4974
    13.2165  13.7633  15.3225  15.3340  16.8849  17.7834  17.8162  18.8594
    19.0067  20.4098

          k = 0.0000-0.4976-0.4976 (  4780 PWs)   bands (ev):

   -69.4912 -39.3785 -35.5998 -35.5998 -35.5506 -15.8310 -15.8310 -15.4943
    13.1356  13.7094  15.2348  15.2348  17.4622  17.8831  18.3787  18.3787
    19.1273  20.5687

          k = 0.0995 0.0995 0.0995 (  4812 PWs)   bands (ev):

   -69.4966 -39.4406 -35.5624 -35.5624 -35.5590 -15.5832 -15.5740 -15.5740
    10.5056  13.9443  13.9443  16.2393  16.2393  16.6130  18.6140  18.6140
    19.5331  20.2799

          k = 0.0995 0.0995 0.1990 (  4789 PWs)   bands (ev):

   -69.4958 -39.4334 -35.5702 -35.5613 -35.5590 -15.6627 -15.5721 -15.5686
    11.0707  14.1944  14.2102  16.1140  16.1646  16.6685  18.3643  18.7435
    19.0772  19.6240

          k = 0.0995 0.0995 0.2985 (  4799 PWs)   bands (ev):

   -69.4948 -39.4245 -35.5800 -35.5598 -35.5589 -15.7662 -15.5632 -15.5619
    11.9227  14.4550  14.5725  16.0636  16.0641  16.6005  17.9987  18.6030
    18.9623  19.0470

          k = 0.0995 0.0995 0.3980 (  4799 PWs)   bands (ev):

   -69.4940 -39.4172 -35.5879 -35.5587 -35.5586 -15.8489 -15.5564 -15.5559
    12.9110  14.3972  14.9976  15.9360  16.1403  16.4840  17.6307  18.2717
    18.4994  19.2277

          k = 0.0995 0.0995-0.4976 (  4804 PWs)   bands (ev):

   -69.4937 -39.4145 -35.5909 -35.5586 -35.5582 -15.8803 -15.5543 -15.5531
    13.6736  13.9918  15.2431  15.8298  16.2614  16.4069  17.4647  18.0499
    18.3348  19.3484

          k = 0.0995 0.1990 0.1990 (  4806 PWs)   bands (ev):

   -69.4950 -39.4252 -35.5726 -35.5670 -35.5592 -15.6616 -15.6456 -15.5635
    11.5909  14.3494  14.5225  15.9307  16.0357  16.5391  18.4600  18.7201
    18.8785  19.3445

          k = 0.0995 0.1990 0.2985 (  4804 PWs)   bands (ev):

   -69.4940 -39.4150 -35.5816 -35.5689 -35.5585 -15.7552 -15.6422 -15.5552
    12.3495  14.4885  14.9013  15.7943  15.9424  16.2907  18.3263  18.5137
    18.8979  19.2432

          k = 0.0995 0.1990 0.3980 (  4796 PWs)   bands (ev):

   -69.4932 -39.4068 -35.5900 -35.5695 -35.5577 -15.8356 -15.6340 -15.5484
    13.1719  14.4002  15.1953  15.7157  16.0030  16.1586  18.0887  18.1616
    18.7071  19.6975

          k = 0.0995 0.1990-0.4976 (  4804 PWs)   bands (ev):

   -69.4929 -39.4037 -35.5932 -35.5697 -35.5574 -15.8661 -15.6308 -15.5457
    13.7190  14.1140  15.3240  15.6729  16.0217  16.2457  17.8896  18.0512
    18.5674  20.0595

          k = 0.0995 0.2985 0.2985 (  4792 PWs)   bands (ev):

   -69.4931 -39.4034 -35.5852 -35.5791 -35.5574 -15.7484 -15.7328 -15.5461
    12.8975  14.3776  15.4208  15.5783  15.9287  15.9767  18.3068  18.6746
    18.7599  19.6450

          k = 0.0995 0.2985 0.3980 (  4787 PWs)   bands (ev):

   -69.4923 -39.3939 -35.5926 -35.5829 -35.5565 -15.8191 -15.7290 -15.5387
    13.3610  14.1815  15.4734  15.6299  15.8953  16.3101  18.0725  18.6170
    18.8112  20.1746

          k = 0.0995 0.2985-0.4976 (  4766 PWs)   bands (ev):

   -69.4920 -39.3902 -35.5960 -35.5837 -35.5561 -15.8485 -15.7249 -15.5358
    13.5708  14.0446  15.4907  15.5063  15.9907  16.7219  17.7999  18.6757
    18.7009  20.3540

          k = 0.0995 0.3980 0.3980 (  4780 PWs)   bands (ev):

   -69.4915 -39.3834 -35.5954 -35.5930 -35.5555 -15.8083 -15.8024 -15.5308
    13.3913  13.9867  15.3087  15.4345  16.5277  16.8252  18.1481  18.4894
    19.0451  20.4652

          k = 0.0995 0.3980-0.4976 (  4772 PWs)   bands (ev):

   -69.4912 -39.3793 -35.5984 -35.5949 -35.5551 -15.8343 -15.8002 -15.5278
    13.3783  13.9153  15.2887  15.2963  16.7848  17.4861  17.7758  18.4517
    19.1136  20.5689

          k = 0.0995-0.4976-0.4976 (  4772 PWs)   bands (ev):

   -69.4909 -39.3752 -35.5993 -35.5993 -35.5547 -15.8288 -15.8288 -15.5248
    13.2989  13.8606  15.2094  15.2094  17.4658  17.8792  17.8792  17.8844
    19.2298  21.2090

          k = 0.1990 0.1990 0.1990 (  4812 PWs)   bands (ev):

   -69.4942 -39.4164 -35.5713 -35.5713 -35.5652 -15.6558 -15.6399 -15.6399
    12.0926  14.6645  14.6645  15.8125  15.8125  16.1535  18.6448  18.6448
    19.1295  19.5932

          k = 0.1990 0.1990 0.2985 (  4790 PWs)   bands (ev):

   -69.4933 -39.4056 -35.5818 -35.5698 -35.5675 -15.7451 -15.6364 -15.6328
    12.8049  14.8625  14.9035  15.6628  15.6867  15.8524  18.5255  18.6424
    18.9922  19.5849

          k = 0.1990 0.1990 0.3980 (  4794 PWs)   bands (ev):

   -69.4925 -39.3968 -35.5909 -35.5687 -35.5685 -15.8242 -15.6271 -15.6259
    13.5291  14.6779  15.0612  15.5195  15.7773  15.9909  18.2368  18.3914
    18.6102  20.1332

          k = 0.1990 0.1990-0.4976 (  4792 PWs)   bands (ev):

   -69.4922 -39.3935 -35.5944 -35.5691 -35.5680 -15.8542 -15.6250 -15.6218
    13.9652  14.3739  15.1671  15.4390  15.8531  16.2146  17.9047  18.3198
    18.4941  20.2401

          k = 0.1990 0.2985 0.2985 (  4791 PWs)   bands (ev):

   -69.4923 -39.3939 -35.5838 -35.5798 -35.5680 -15.7375 -15.7270 -15.6251
    13.3864  14.7653  15.3896  15.4754  15.5100  15.6187  18.4163  18.6023
    19.0931  19.8440

          k = 0.1990 0.2985 0.3980 (  4782 PWs)   bands (ev):

   -69.4915 -39.3844 -35.5922 -35.5820 -35.5674 -15.8101 -15.7220 -15.6172
    13.8262  14.5436  15.3262  15.3774  15.7180  16.0019  18.1157  18.3733
    19.0733  20.1731

          k = 0.1990 0.2985-0.4976 (  4780 PWs)   bands (ev):

   -69.4912 -39.3808 -35.5960 -35.5824 -35.5671 -15.8395 -15.7183 -15.6142
    13.9854  14.4113  15.2857  15.3460  15.8152  16.3930  17.8023  18.2809
    19.0456  20.3424

          k = 0.1990 0.3980 0.3980 (  4789 PWs)   bands (ev):

   -69.4907 -39.3744 -35.5939 -35.5923 -35.5664 -15.8005 -15.7966 -15.6097
    13.8628  14.3676  15.2346  15.3073  16.2924  16.2928  18.0489  18.0962
    19.3731  20.4282

          k = 0.1990 0.3980-0.4976 (  4784 PWs)   bands (ev):

   -69.4904 -39.3705 -35.5972 -35.5935 -35.5660 -15.8275 -15.7942 -15.6068
    13.8347  14.3058  15.2138  15.2165  16.4382  16.8315  17.7119  18.0587
    19.4381  20.6234

          k = 0.1990-0.4976-0.4976 (  4760 PWs)   bands (ev):

   -69.4901 -39.3666 -35.5977 -35.5977 -35.5655 -15.8229 -15.8229 -15.6040
    13.7630  14.2553  15.1529  15.1529  17.0472  17.0472  17.4754  17.8704
    19.5434  20.8670

          k = 0.2985 0.2985 0.2985 (  4788 PWs)   bands (ev):

   -69.4913 -39.3822 -35.5821 -35.5821 -35.5796 -15.7258 -15.7197 -15.7197
    14.0265  15.0282  15.3122  15.3122  15.3771  15.3771  18.3538  18.3538
    19.6396  19.6396

          k = 0.2985 0.2985 0.3980 (  4795 PWs)   bands (ev):

   -69.4905 -39.3727 -35.5919 -35.5810 -35.5807 -15.7990 -15.7138 -15.7126
    14.3913  14.7843  15.2317  15.3045  15.4527  15.8136  18.0220  18.1577
    19.5746  20.1832

          k = 0.2985 0.2985-0.4976 (  4788 PWs)   bands (ev):

   -69.4902 -39.3691 -35.5959 -35.5812 -35.5802 -15.8282 -15.7116 -15.7085
    14.4168  14.6974  15.2028  15.2721  15.6160  16.1451  17.7275  18.0895
    19.5609  20.4202

          k = 0.2985 0.3980 0.3980 (  4777 PWs)   bands (ev):

   -69.4898 -39.3632 -35.5920 -35.5914 -35.5798 -15.7908 -15.7893 -15.7061
    14.5197  14.7723  15.1695  15.2865  15.7284  15.9303  17.8453  17.9483
    19.9006  20.4513

          k = 0.2985 0.3980-0.4976 (  4790 PWs)   bands (ev):

   -69.4895 -39.3596 -35.5959 -35.5917 -35.5794 -15.8192 -15.7866 -15.7033
    14.4736  14.7394  15.1755  15.1868  15.9343  16.2127  17.6235  17.8927
    19.9571  20.6762

          k = 0.2985-0.4976-0.4976 (  4772 PWs)   bands (ev):

   -69.4892 -39.3559 -35.5958 -35.5958 -35.5789 -15.8157 -15.8157 -15.7008
    14.4393  14.7351  15.1145  15.1145  16.3063  16.3063  17.4872  17.7946
    20.0582  20.8918

          k = 0.3980 0.3980 0.3980 (  4767 PWs)   bands (ev):

   -69.4890 -39.3541 -35.5907 -35.5906 -35.5906 -15.7834 -15.7834 -15.7827
    14.8213  15.1707  15.1707  15.3723  15.5715  15.5715  17.7375  17.7375
    20.4819  20.4819

          k = 0.3980 0.3980-0.4976 (  4760 PWs)   bands (ev):

   -69.4887 -39.3507 -35.5947 -35.5904 -35.5900 -15.8124 -15.7811 -15.7799
    14.9362  14.9757  15.2422  15.3640  15.5470  15.8231  17.5692  17.7092
    20.4948  20.7591

          k = 0.3980-0.4976-0.4976 (  4764 PWs)   bands (ev):

   -69.4884 -39.3473 -35.5943 -35.5943 -35.5896 -15.8098 -15.8098 -15.7782
    15.1093  15.1370  15.1513  15.1513  15.7526  15.7526  17.4968  17.6258
    20.6381  20.9120

          k =-0.4976-0.4976-0.4976 (  4776 PWs)   bands (ev):

   -69.4881 -39.3440 -35.5937 -35.5937 -35.5937 -15.8076 -15.8076 -15.8076
    15.2474  15.2474  15.2474  15.4763  15.4763  15.4763  17.5005  17.5005
    20.9198  20.9198

     the Fermi energy is    17.4497 ev

!    total energy              =    -448.58693195 Ry
     estimated scf accuracy    <          4.6E-11 Ry
     smearing contrib. (-TS)   =      -0.00007590 Ry
     internal energy E=F+TS    =    -448.58685605 Ry

     The total energy is F=E-TS. E is the sum of the following terms:
     one-electron contribution =    -153.31502159 Ry
     hartree contribution      =      92.30069228 Ry
     xc contribution           =     -52.86566321 Ry
     ewald contribution        =    -258.55351652 Ry
     one-center paw contrib.   =     -76.15334702 Ry

     convergence has been achieved in   6 iterations

     negative rho (up, down):  9.826E-04 0.000E+00

     Forces acting on atoms (cartesian axes, Ry/au):

     atom    1 type  1   force =     0.00000000    0.00000000    0.00000000
     atom    2 type  2   force =     0.00000000    0.00000000    0.00000000

     Total force =     0.000000     Total SCF correction =     0.000000


     Computing stress (Cartesian axis) and pressure


     negative rho (up, down):  9.826E-04 0.000E+00
          total   stress  (Ry/bohr**3)                   (kbar)     P=        0.04
   0.00000030   0.00000000   0.00000000            0.04        0.00        0.00
   0.00000000   0.00000030   0.00000000            0.00        0.04        0.00
   0.00000000   0.00000000   0.00000030            0.00        0.00        0.04

     Energy error            =      7.3E-08 Ry
     Gradient error          =      0.0E+00 Ry/Bohr
     Cell gradient error     =      4.4E-02 kbar

     bfgs converged in   3 scf cycles and   2 bfgs steps
     (criteria: energy <  1.0E-04 Ry, force <  1.0E-03 Ry/Bohr, cell <  5.0E-01 kbar)

     End of BFGS Geometry Optimization

     Final enthalpy           =    -448.5869319494 Ry

     File ./out/TiFe.bfgs deleted, as requested
Begin final coordinates
     new unit-cell volume =    173.78945 a.u.^3 (    25.75294 Ang^3 )
     density =      6.68731 g/cm^3

CELL_PARAMETERS (alat=  5.55330037)
   1.004901060   0.000000000   0.000000000
   0.000000000   1.004901060   0.000000000
   0.000000000   0.000000000   1.004901060

ATOMIC_POSITIONS (crystal)
Fe               0.5000000000        0.5000000000        0.5000000000
Ti               0.0000000000        0.0000000000        0.0000000000
End final coordinates



     Writing config-only to output data dir ./out/TiFe.save/ :
     XML data file

     Final scf calculation at the relaxed structure.
     The G-vectors are recalculated for the final unit cell
     Results may differ from those at the preceding step.

     Parallelization info
     --------------------
     sticks:   dense  smooth     PW     G-vecs:    dense   smooth      PW
     Min         576     228     67                25584     6484    1029
     Max         577     230     68                25587     6487    1032
     Sum        3457    1373    405               153507    38911    6187

     Using Slab Decomposition



     bravais-lattice index     =            0
     lattice parameter (alat)  =       5.5533  a.u.
     unit-cell volume          =     173.7894 (a.u.)^3
     number of atoms/cell      =            2
     number of atomic types    =            2
     number of electrons       =        28.00
     number of Kohn-Sham states=           18
     kinetic-energy cutoff     =     140.0000  Ry
     charge density cutoff     =    1400.0000  Ry
     scf convergence threshold =      1.0E-10
     mixing beta               =       0.7000
     number of iterations used =            8  plain     mixing
     press convergence thresh. =      5.0E-01
     Exchange-correlation= PBE
                           (   1   4   3   4   0   0   0)

     celldm(1)=   5.553300  celldm(2)=   0.000000  celldm(3)=   0.000000
     celldm(4)=   0.000000  celldm(5)=   0.000000  celldm(6)=   0.000000

     crystal axes: (cart. coord. in units of alat)
               a(1) = (   1.004901   0.000000   0.000000 )  
               a(2) = (   0.000000   1.004901   0.000000 )  
               a(3) = (   0.000000   0.000000   1.004901 )  

     reciprocal axes: (cart. coord. in units 2 pi/alat)
               b(1) = (  0.995123  0.000000  0.000000 )  
               b(2) = (  0.000000  0.995123  0.000000 )  
               b(3) = (  0.000000  0.000000  0.995123 )  


     PseudoPot. # 1 for Fe read from file:
     /home/rafi/QE/qe-7.4.1/pseudo/Fe.pbe-spn-kjpaw_psl.0.2.1.UPF
     MD5 check sum: e86618425769142926afa95317d90200
     Pseudo is Projector augmented-wave + core cor, Zval = 16.0
     Generated using "atomic" code by A. Dal Corso  v.5.0.99 svn rev. 10869
     Shape of augmentation charge: PSQ
     Using radial grid of 1191 points,  6 beta functions with: 
                l(1) =   0
                l(2) =   0
                l(3) =   1
                l(4) =   1
                l(5) =   2
                l(6) =   2
     Q(r) pseudized with 0 coefficients 


     PseudoPot. # 2 for Ti read from file:
     /home/rafi/QE/qe-7.4.1/pseudo/ti_pbe_v1.4.uspp.F.UPF
     MD5 check sum: 88a00a6731bd790ddea75d31a80cb452
     Pseudo is Ultrasoft + core correction, Zval = 12.0
     Generated by new atomic code, or converted to UPF format
     Using radial grid of  851 points,  6 beta functions with: 
                l(1) =   0
                l(2) =   0
                l(3) =   1
                l(4) =   1
                l(5) =   2
                l(6) =   2
     Q(r) pseudized with  6 coefficients,  rinner =    1.000   1.000   1.000
                                                       1.000   1.000

     atomic species   valence    mass     pseudopotential
     Fe               16.00    55.84500     Fe( 1.00)
     Ti               12.00    47.86700     Ti( 1.00)

     48 Sym. Ops., with inversion, found



   Cartesian axes

     site n.     atom                  positions (alat units)
         1        Fe     tau(   1) = (   0.5024505   0.5024505   0.5024505  )
         2        Ti     tau(   2) = (   0.0000000   0.0000000   0.0000000  )

     number of k points=    56  Marzari-Vanderbilt smearing, width (Ry)=  0.0050
                       cart. coord. in units 2pi/alat
        k(    1) = (   0.0000000   0.0000000   0.0000000), wk =   0.0020000
        k(    2) = (   0.0000000   0.0000000   0.0995123), wk =   0.0120000
        k(    3) = (   0.0000000   0.0000000   0.1990246), wk =   0.0120000
        k(    4) = (   0.0000000   0.0000000   0.2985369), wk =   0.0120000
        k(    5) = (   0.0000000   0.0000000   0.3980491), wk =   0.0120000
        k(    6) = (   0.0000000   0.0000000  -0.4975614), wk =   0.0060000
        k(    7) = (   0.0000000   0.0995123   0.0995123), wk =   0.0240000
        k(    8) = (   0.0000000   0.0995123   0.1990246), wk =   0.0480000
        k(    9) = (   0.0000000   0.0995123   0.2985369), wk =   0.0480000
        k(   10) = (   0.0000000   0.0995123   0.3980491), wk =   0.0480000
        k(   11) = (   0.0000000   0.0995123  -0.4975614), wk =   0.0240000
        k(   12) = (   0.0000000   0.1990246   0.1990246), wk =   0.0240000
        k(   13) = (   0.0000000   0.1990246   0.2985369), wk =   0.0480000
        k(   14) = (   0.0000000   0.1990246   0.3980491), wk =   0.0480000
        k(   15) = (   0.0000000   0.1990246  -0.4975614), wk =   0.0240000
        k(   16) = (   0.0000000   0.2985369   0.2985369), wk =   0.0240000
        k(   17) = (   0.0000000   0.2985369   0.3980491), wk =   0.0480000
        k(   18) = (   0.0000000   0.2985369  -0.4975614), wk =   0.0240000
        k(   19) = (   0.0000000   0.3980491   0.3980491), wk =   0.0240000
        k(   20) = (   0.0000000   0.3980491  -0.4975614), wk =   0.0240000
        k(   21) = (   0.0000000  -0.4975614  -0.4975614), wk =   0.0060000
        k(   22) = (   0.0995123   0.0995123   0.0995123), wk =   0.0160000
        k(   23) = (   0.0995123   0.0995123   0.1990246), wk =   0.0480000
        k(   24) = (   0.0995123   0.0995123   0.2985369), wk =   0.0480000
        k(   25) = (   0.0995123   0.0995123   0.3980491), wk =   0.0480000
        k(   26) = (   0.0995123   0.0995123  -0.4975614), wk =   0.0240000
        k(   27) = (   0.0995123   0.1990246   0.1990246), wk =   0.0480000
        k(   28) = (   0.0995123   0.1990246   0.2985369), wk =   0.0960000
        k(   29) = (   0.0995123   0.1990246   0.3980491), wk =   0.0960000
        k(   30) = (   0.0995123   0.1990246  -0.4975614), wk =   0.0480000
        k(   31) = (   0.0995123   0.2985369   0.2985369), wk =   0.0480000
        k(   32) = (   0.0995123   0.2985369   0.3980491), wk =   0.0960000
        k(   33) = (   0.0995123   0.2985369  -0.4975614), wk =   0.0480000
        k(   34) = (   0.0995123   0.3980491   0.3980491), wk =   0.0480000
        k(   35) = (   0.0995123   0.3980491  -0.4975614), wk =   0.0480000
[...]
     estimated scf accuracy    <       0.00000305 Ry

     iteration # 27     ecut=   140.00 Ry     beta= 0.70
     Davidson diagonalization with overlap
     ethr =  1.09E-08,  avg # of iterations =  3.0

     negative rho (up, down):  9.829E-04 0.000E+00

     total cpu time spent up to now is      282.0 secs

     total energy              =    -448.58693749 Ry
     estimated scf accuracy    <       0.00000036 Ry

     iteration # 28     ecut=   140.00 Ry     beta= 0.70
     Davidson diagonalization with overlap
     ethr =  1.30E-09,  avg # of iterations =  4.3

     negative rho (up, down):  9.829E-04 0.000E+00

     total cpu time spent up to now is      285.7 secs

     total energy              =    -448.58693758 Ry
     estimated scf accuracy    <       0.00000002 Ry

     iteration # 29     ecut=   140.00 Ry     beta= 0.70
     Davidson diagonalization with overlap
     ethr =  7.14E-11,  avg # of iterations =  4.5

     negative rho (up, down):  9.830E-04 0.000E+00

     total cpu time spent up to now is      289.7 secs

     total energy              =    -448.58693757 Ry
     estimated scf accuracy    <       0.00000001 Ry

     iteration # 30     ecut=   140.00 Ry     beta= 0.70
     Davidson diagonalization with overlap
     ethr =  5.30E-11,  avg # of iterations =  4.2

     negative rho (up, down):  9.830E-04 0.000E+00

     total cpu time spent up to now is      293.9 secs

     total energy              =    -448.58693758 Ry
     estimated scf accuracy    <       0.00000002 Ry

     iteration # 31     ecut=   140.00 Ry     beta= 0.70
     Davidson diagonalization with overlap
     ethr =  5.30E-11,  avg # of iterations =  2.0

     negative rho (up, down):  9.829E-04 0.000E+00

     total cpu time spent up to now is      297.6 secs

     total energy              =    -448.58693758 Ry
     estimated scf accuracy    <          1.2E-09 Ry

     iteration # 32     ecut=   140.00 Ry     beta= 0.70
     Davidson diagonalization with overlap
     ethr =  4.19E-12,  avg # of iterations =  4.8

     negative rho (up, down):  9.829E-04 0.000E+00

     total cpu time spent up to now is      301.8 secs

     total energy              =    -448.58693758 Ry
     estimated scf accuracy    <          1.4E-10 Ry

     iteration # 33     ecut=   140.00 Ry     beta= 0.70
     Davidson diagonalization with overlap
     ethr =  4.84E-13,  avg # of iterations =  4.4

     negative rho (up, down):  9.829E-04 0.000E+00

     total cpu time spent up to now is      306.2 secs

     total energy              =    -448.58693758 Ry
     estimated scf accuracy    <          1.5E-10 Ry

     iteration # 34     ecut=   140.00 Ry     beta= 0.70
     Davidson diagonalization with overlap
     ethr =  4.84E-13,  avg # of iterations =  2.0

     negative rho (up, down):  9.829E-04 0.000E+00

     total cpu time spent up to now is      309.6 secs

     End of self-consistent calculation

          k = 0.0000 0.0000 0.0000 (  4945 PWs)   bands (ev):

   -69.4976 -39.4484 -35.5590 -35.5590 -35.5590 -15.5485 -15.5485 -15.5485
     9.9013  13.6464  13.6464  16.3796  16.3796  16.3796  18.6893  18.6893
    20.5985  20.5985

          k = 0.0000 0.0000 0.0995 (  4877 PWs)   bands (ev):

   -69.4973 -39.4460 -35.5619 -35.5586 -35.5586 -15.5819 -15.5464 -15.5464
    10.1074  13.7453  13.7508  16.3644  16.3644  16.4242  18.5650  18.7353
    20.3053  20.3053

          k = 0.0000 0.0000 0.1990 (  4857 PWs)   bands (ev):

   -69.4964 -39.4396 -35.5695 -35.5574 -35.5574 -15.6688 -15.5411 -15.5411
    10.7014  14.0111  14.0328  16.3314  16.3314  16.5472  18.2087  18.8291
    19.6515  19.6515

          k = 0.0000 0.0000 0.2985 (  4857 PWs)   bands (ev):

   -69.4954 -39.4316 -35.5788 -35.5560 -35.5560 -15.7748 -15.5345 -15.5345
    11.6095  14.2673  14.4773  16.3076  16.3076  16.7141  17.6752  18.8102
    18.9739  18.9739

          k = 0.0000 0.0000 0.3980 (  4869 PWs)   bands (ev):

   -69.4946 -39.4252 -35.5862 -35.5549 -35.5549 -15.8594 -15.5292 -15.5292
    12.6884  14.2537  14.9950  16.3077  16.3077  16.8650  17.0823  18.4806
    18.4806  18.5056

          k = 0.0000 0.0000-0.4976 (  4918 PWs)   bands (ev):

   -69.4943 -39.4228 -35.5891 -35.5544 -35.5544 -15.8915 -15.5272 -15.5272
    13.5727  13.8137  15.2981  16.3143  16.3143  16.7499  16.9275  18.2715
    18.2986  18.2986

          k = 0.0000 0.0995 0.0995 (  4881 PWs)   bands (ev):

   -69.4969 -39.4434 -35.5629 -35.5603 -35.5581 -15.5830 -15.5761 -15.5443
    10.3085  13.8366  13.8575  16.2679  16.3382  16.5334  18.5510  18.7014
    19.9951  20.0126

          k = 0.0000 0.0995 0.1990 (  4863 PWs)   bands (ev):

   -69.4961 -39.4365 -35.5700 -35.5603 -35.5570 -15.6658 -15.5729 -15.5387
    10.8867  14.0807  14.1434  16.1767  16.2762  16.6550  18.2865  18.7840
    19.3863  19.4511

          k = 0.0000 0.0995 0.2985 (  4866 PWs)   bands (ev):

   -69.4951 -39.4280 -35.5795 -35.5596 -35.5556 -15.7704 -15.5653 -15.5318
    11.7644  14.3351  14.5493  16.1362  16.2103  16.7121  17.8487  18.6070
    18.9776  18.9967

          k = 0.0000 0.0995 0.3980 (  4876 PWs)   bands (ev):

   -69.4943 -39.4212 -35.5872 -35.5590 -35.5545 -15.8540 -15.5591 -15.5262
    12.7944  14.3069  15.0165  16.1490  16.1575  16.6627  17.3995  18.1718
    18.7307  18.8408

          k = 0.0000 0.0995-0.4976 (  4862 PWs)   bands (ev):

   -69.4940 -39.4186 -35.5901 -35.5588 -35.5541 -15.8857 -15.5567 -15.5240
    13.6106  13.8940  15.2866  16.0872  16.1901  16.6037  17.2035  17.9819
    18.6734  18.7035

          k = 0.0000 0.1990 0.1990 (  4871 PWs)   bands (ev):

   -69.4953 -39.4285 -35.5731 -35.5663 -35.5559 -15.6655 -15.6477 -15.5324
    11.4119  14.2228  14.4713  15.9764  16.1602  16.6871  18.3781  18.7448
    18.8362  19.1796

          k = 0.0000 0.1990 0.2985 (  4870 PWs)   bands (ev):

   -69.4943 -39.4186 -35.5816 -35.5689 -35.5546 -15.7591 -15.6451 -15.5246
    12.1819  14.3418  14.8989  15.8484  16.0769  16.5198  18.2090  18.3352
    18.9110  19.1208

          k = 0.0000 0.1990 0.3980 (  4870 PWs)   bands (ev):

   -69.4935 -39.4106 -35.5896 -35.5699 -35.5535 -15.8399 -15.6368 -15.5183
    13.0264  14.2554  15.2861  15.8326  16.1119  16.2477  17.9010  18.0759
    19.0467  19.2458

          k = 0.0000 0.1990-0.4976 (  4868 PWs)   bands (ev):

   -69.4932 -39.4075 -35.5927 -35.5702 -35.5531 -15.8706 -15.6336 -15.5158
    13.5973  13.9766  15.4534  15.8922  16.0718  16.1843  17.8299  17.8904
    19.0748  19.3426

          k = 0.0000 0.2985 0.2985 (  4877 PWs)   bands (ev):

   -69.4934 -39.4069 -35.5857 -35.5789 -35.5533 -15.7526 -15.7350 -15.5157
    12.7210  14.2302  15.4278  15.6212  16.1152  16.1661  18.2033  18.5230
    18.8019  19.4287

          k = 0.0000 0.2985 0.3980 (  4853 PWs)   bands (ev):

   -69.4926 -39.3975 -35.5928 -35.5832 -35.5523 -15.8225 -15.7317 -15.5084
    13.1921  14.0345  15.5241  15.8233  15.8826  16.4704  18.0361  18.5423
    19.0070  19.7738

          k = 0.0000 0.2985-0.4976 (  4856 PWs)   bands (ev):

   -69.4923 -39.3938 -35.5961 -35.5842 -35.5519 -15.8519 -15.7275 -15.5057
    13.4170  13.8923  15.5641  15.6228  16.0320  16.8642  17.7790  18.5464
    19.1795  19.9696

          k = 0.0000 0.3980 0.3980 (  4855 PWs)   bands (ev):

   -69.4918 -39.3868 -35.5959 -35.5933 -35.5514 -15.8113 -15.8047 -15.5005
    13.2243  13.8372  15.3403  15.4971  16.6011  17.0400  18.2616  18.7241
    18.9422  20.1943

          k = 0.0000 0.3980-0.4976 (  4858 PWs)   bands (ev):

   -69.4915 -39.3827 -35.5988 -35.5955 -35.5510 -15.8368 -15.8025 -15.4974
    13.2165  13.7633  15.3225  15.3340  16.8849  17.7834  17.8162  18.8594
    19.0067  20.4098

          k = 0.0000-0.4976-0.4976 (  4812 PWs)   bands (ev):

   -69.4912 -39.3784 -35.5998 -35.5998 -35.5506 -15.8310 -15.8310 -15.4943
    13.1356  13.7094  15.2348  15.2348  17.4622  17.8831  18.3787  18.3787
    19.1273  20.5687

          k = 0.0995 0.0995 0.0995 (  4878 PWs)   bands (ev):

   -69.4966 -39.4406 -35.5624 -35.5624 -35.5590 -15.5832 -15.5740 -15.5740
    10.5056  13.9443  13.9443  16.2393  16.2393  16.6130  18.6140  18.6140
    19.5331  20.2799

          k = 0.0995 0.0995 0.1990 (  4862 PWs)   bands (ev):

   -69.4958 -39.4334 -35.5702 -35.5613 -35.5591 -15.6627 -15.5721 -15.5686
    11.0707  14.1944  14.2102  16.1140  16.1646  16.6685  18.3643  18.7435
    19.0772  19.6240

          k = 0.0995 0.0995 0.2985 (  4843 PWs)   bands (ev):

   -69.4948 -39.4244 -35.5800 -35.5598 -35.5589 -15.7662 -15.5632 -15.5618
    11.9227  14.4550  14.5725  16.0636  16.0641  16.6005  17.9987  18.6030
    18.9623  19.0470

          k = 0.0995 0.0995 0.3980 (  4879 PWs)   bands (ev):

   -69.4940 -39.4172 -35.5879 -35.5587 -35.5586 -15.8489 -15.5564 -15.5559
    12.9110  14.3972  14.9976  15.9360  16.1404  16.4840  17.6307  18.2717
    18.4994  19.2277

          k = 0.0995 0.0995-0.4976 (  4880 PWs)   bands (ev):

   -69.4937 -39.4145 -35.5910 -35.5586 -35.5582 -15.8803 -15.5543 -15.5531
    13.6736  13.9918  15.2432  15.8299  16.2614  16.4069  17.4647  18.0499
    18.3348  19.3484

          k = 0.0995 0.1990 0.1990 (  4862 PWs)   bands (ev):

   -69.4950 -39.4252 -35.5726 -35.5670 -35.5592 -15.6616 -15.6456 -15.5635
    11.5909  14.3494  14.5226  15.9307  16.0357  16.5391  18.4600  18.7201
    18.8785  19.3445

          k = 0.0995 0.1990 0.2985 (  4864 PWs)   bands (ev):

   -69.4940 -39.4150 -35.5816 -35.5689 -35.5585 -15.7552 -15.6422 -15.5552
    12.3495  14.4885  14.9013  15.7943  15.9424  16.2907  18.3263  18.5137
    18.8979  19.2433

          k = 0.0995 0.1990 0.3980 (  4873 PWs)   bands (ev):

   -69.4932 -39.4068 -35.5900 -35.5695 -35.5577 -15.8356 -15.6340 -15.5483
    13.1719  14.4002  15.1953  15.7157  16.0030  16.1586  18.0887  18.1616
    18.7071  19.6975

          k = 0.0995 0.1990-0.4976 (  4868 PWs)   bands (ev):

   -69.4929 -39.4036 -35.5932 -35.5697 -35.5574 -15.8661 -15.6308 -15.5457
    13.7190  14.1140  15.3240  15.6729  16.0217  16.2457  17.8896  18.0512
    18.5674  20.0595

          k = 0.0995 0.2985 0.2985 (  4865 PWs)   bands (ev):

   -69.4931 -39.4033 -35.5852 -35.5791 -35.5574 -15.7484 -15.7328 -15.5461
    12.8974  14.3776  15.4208  15.5783  15.9287  15.9767  18.3068  18.6746
    18.7599  19.6450

          k = 0.0995 0.2985 0.3980 (  4850 PWs)   bands (ev):

   -69.4923 -39.3939 -35.5926 -35.5829 -35.5565 -15.8191 -15.7290 -15.5387
    13.3610  14.1815  15.4734  15.6299  15.8953  16.3102  18.0725  18.6170
    18.8112  20.1746

          k = 0.0995 0.2985-0.4976 (  4868 PWs)   bands (ev):

   -69.4920 -39.3902 -35.5960 -35.5837 -35.5561 -15.8485 -15.7249 -15.5358
    13.5708  14.0446  15.4907  15.5063  15.9907  16.7219  17.7999  18.6757
    18.7009  20.3540

          k = 0.0995 0.3980 0.3980 (  4856 PWs)   bands (ev):

   -69.4915 -39.3833 -35.5954 -35.5930 -35.5555 -15.8083 -15.8024 -15.5308
    13.3913  13.9867  15.3087  15.4345  16.5278  16.8252  18.1481  18.4894
    19.0451  20.4652

          k = 0.0995 0.3980-0.4976 (  4862 PWs)   bands (ev):

   -69.4912 -39.3793 -35.5984 -35.5950 -35.5551 -15.8342 -15.8002 -15.5278
    13.3783  13.9153  15.2887  15.2963  16.7848  17.4861  17.7758  18.4517
    19.1136  20.5689

          k = 0.0995-0.4976-0.4976 (  4820 PWs)   bands (ev):

   -69.4909 -39.3752 -35.5993 -35.5993 -35.5547 -15.8288 -15.8288 -15.5247
    13.2989  13.8606  15.2094  15.2094  17.4658  17.8793  17.8793  17.8844
    19.2298  21.2090

          k = 0.1990 0.1990 0.1990 (  4857 PWs)   bands (ev):

   -69.4942 -39.4164 -35.5713 -35.5713 -35.5652 -15.6557 -15.6399 -15.6399
    12.0926  14.6645  14.6645  15.8125  15.8125  16.1535  18.6448  18.6448
    19.1295  19.5932

          k = 0.1990 0.1990 0.2985 (  4870 PWs)   bands (ev):

   -69.4933 -39.4056 -35.5818 -35.5698 -35.5675 -15.7451 -15.6364 -15.6328
    12.8049  14.8625  14.9035  15.6628  15.6867  15.8524  18.5255  18.6424
    18.9922  19.5849

          k = 0.1990 0.1990 0.3980 (  4854 PWs)   bands (ev):

   -69.4925 -39.3968 -35.5909 -35.5687 -35.5685 -15.8241 -15.6271 -15.6259
    13.5291  14.6779  15.0612  15.5196  15.7773  15.9909  18.2369  18.3914
    18.6103  20.1333

          k = 0.1990 0.1990-0.4976 (  4860 PWs)   bands (ev):

   -69.4922 -39.3934 -35.5944 -35.5691 -35.5680 -15.8542 -15.6249 -15.6218
    13.9652  14.3739  15.1671  15.4390  15.8532  16.2146  17.9047  18.3198
    18.4941  20.2401

          k = 0.1990 0.2985 0.2985 (  4879 PWs)   bands (ev):

   -69.4923 -39.3939 -35.5838 -35.5798 -35.5680 -15.7374 -15.7269 -15.6251
    13.3864  14.7653  15.3896  15.4754  15.5100  15.6187  18.4163  18.6023
    19.0931  19.8440

          k = 0.1990 0.2985 0.3980 (  4858 PWs)   bands (ev):

   -69.4915 -39.3844 -35.5922 -35.5820 -35.5674 -15.8101 -15.7220 -15.6172
    13.8262  14.5436  15.3262  15.3774  15.7180  16.0019  18.1157  18.3733
    19.0734  20.1731

          k = 0.1990 0.2985-0.4976 (  4862 PWs)   bands (ev):

   -69.4912 -39.3808 -35.5960 -35.5824 -35.5671 -15.8394 -15.7183 -15.6142
    13.9854  14.4113  15.2857  15.3460  15.8152  16.3930  17.8023  18.2810
    19.0456  20.3424

          k = 0.1990 0.3980 0.3980 (  4863 PWs)   bands (ev):

   -69.4907 -39.3743 -35.5939 -35.5923 -35.5664 -15.8005 -15.7965 -15.6097
    13.8628  14.3676  15.2347  15.3073  16.2924  16.2928  18.0489  18.0962
    19.3731  20.4283

          k = 0.1990 0.3980-0.4976 (  4844 PWs)   bands (ev):

   -69.4904 -39.3705 -35.5972 -35.5935 -35.5660 -15.8275 -15.7941 -15.6068
    13.8347  14.3058  15.2138  15.2165  16.4382  16.8315  17.7119  18.0587
    19.4381  20.6234

          k = 0.1990-0.4976-0.4976 (  4848 PWs)   bands (ev):

   -69.4901 -39.3666 -35.5977 -35.5977 -35.5655 -15.8229 -15.8229 -15.6040
    13.7630  14.2553  15.1529  15.1529  17.0472  17.0472  17.4754  17.8705
    19.5435  20.8670

          k = 0.2985 0.2985 0.2985 (  4872 PWs)   bands (ev):

   -69.4913 -39.3822 -35.5821 -35.5821 -35.5796 -15.7257 -15.7197 -15.7197
    14.0265  15.0283  15.3122  15.3122  15.3771  15.3771  18.3538  18.3538
    19.6396  19.6396

          k = 0.2985 0.2985 0.3980 (  4850 PWs)   bands (ev):

   -69.4905 -39.3727 -35.5919 -35.5810 -35.5807 -15.7990 -15.7138 -15.7126
    14.3913  14.7843  15.2318  15.3045  15.4527  15.8136  18.0220  18.1577
    19.5746  20.1832

          k = 0.2985 0.2985-0.4976 (  4862 PWs)   bands (ev):

   -69.4902 -39.3690 -35.5959 -35.5813 -35.5802 -15.8282 -15.7116 -15.7084
    14.4168  14.6974  15.2028  15.2721  15.6160  16.1451  17.7275  18.0895
    19.5609  20.4202

          k = 0.2985 0.3980 0.3980 (  4852 PWs)   bands (ev):

   -69.4897 -39.3632 -35.5920 -35.5914 -35.5798 -15.7908 -15.7893 -15.7061
    14.5197  14.7723  15.1695  15.2865  15.7284  15.9303  17.8453  17.9483
    19.9006  20.4513

          k = 0.2985 0.3980-0.4976 (  4832 PWs)   bands (ev):

   -69.4895 -39.3595 -35.5959 -35.5917 -35.5794 -15.8191 -15.7866 -15.7033
    14.4737  14.7394  15.1755  15.1868  15.9343  16.2127  17.6235  17.8927
    19.9571  20.6762

          k = 0.2985-0.4976-0.4976 (  4824 PWs)   bands (ev):

   -69.4892 -39.3559 -35.5958 -35.5958 -35.5789 -15.8157 -15.8157 -15.7008
    14.4393  14.7351  15.1145  15.1145  16.3063  16.3063  17.4872  17.7946
    20.0582  23.9156

          k = 0.3980 0.3980 0.3980 (  4833 PWs)   bands (ev):

   -69.4890 -39.3541 -35.5907 -35.5906 -35.5906 -15.7834 -15.7834 -15.7827
    14.8213  15.1707  15.1707  15.3723  15.5715  15.5715  17.7375  17.7375
    20.4820  20.4820

          k = 0.3980 0.3980-0.4976 (  4826 PWs)   bands (ev):

   -69.4887 -39.3507 -35.5948 -35.5904 -35.5900 -15.8124 -15.7811 -15.7799
    14.9362  14.9757  15.2422  15.3641  15.5470  15.8231  17.5692  17.7093
    20.4948  20.7591

          k = 0.3980-0.4976-0.4976 (  4804 PWs)   bands (ev):

   -69.4884 -39.3473 -35.5943 -35.5943 -35.5896 -15.8098 -15.8098 -15.7782
    15.1093  15.1370  15.1513  15.1513  15.7526  15.7526  17.4968  17.6258
    20.6381  20.9120

          k =-0.4976-0.4976-0.4976 (  4776 PWs)   bands (ev):

   -69.4881 -39.3439 -35.5937 -35.5937 -35.5937 -15.8075 -15.8075 -15.8075
    15.2474  15.2474  15.2474  15.4763  15.4763  15.4763  17.5005  17.5005
    20.9198  20.9198

     the Fermi energy is    17.4497 ev

!    total energy              =    -448.58693758 Ry
     estimated scf accuracy    <          1.3E-11 Ry
     smearing contrib. (-TS)   =      -0.00007590 Ry
     internal energy E=F+TS    =    -448.58686168 Ry

     The total energy is F=E-TS. E is the sum of the following terms:
     one-electron contribution =    -153.31502683 Ry
     hartree contribution      =      92.30069582 Ry
     xc contribution           =     -52.86566697 Ry
     ewald contribution        =    -258.55351652 Ry
     one-center paw contrib.   =     -76.15334719 Ry

     convergence has been achieved in  34 iterations

     negative rho (up, down):  9.829E-04 0.000E+00

     Forces acting on atoms (cartesian axes, Ry/au):

     atom    1 type  1   force =     0.00000000    0.00000000    0.00000000
     atom    2 type  2   force =     0.00000000    0.00000000    0.00000000

     Total force =     0.000000     Total SCF correction =     0.000000


     Computing stress (Cartesian axis) and pressure


     negative rho (up, down):  9.829E-04 0.000E+00
          total   stress  (Ry/bohr**3)                   (kbar)     P=        0.06
   0.00000040   0.00000000   0.00000000            0.06        0.00        0.00
   0.00000000   0.00000040   0.00000000            0.00        0.06        0.00
   0.00000000   0.00000000   0.00000040            0.00        0.00        0.06


     Writing all to output data dir ./out/TiFe.save/ :
     XML data file, charge density, pseudopotentials, collected wavefunctions

     init_run     :      3.39s CPU      3.82s WALL (       2 calls)
     electrons    :    268.55s CPU    293.74s WALL (       4 calls)
     update_pot   :      0.59s CPU      0.74s WALL (       2 calls)
     forces       :      2.17s CPU      2.51s WALL (       4 calls)
     stress       :      9.76s CPU     10.83s WALL (       4 calls)

     Called by init_run:
     wfcinit      :      2.30s CPU      2.55s WALL (       2 calls)
     potinit      :      0.30s CPU      0.33s WALL (       2 calls)
     hinit0       :      0.38s CPU      0.39s WALL (       2 calls)

     Called by electrons:
     c_bands      :    207.77s CPU    219.75s WALL (      76 calls)
     sum_band     :     37.30s CPU     44.59s WALL (      76 calls)
     v_of_rho     :      4.31s CPU      4.69s WALL (      79 calls)
     newd         :     12.73s CPU     17.79s WALL (      79 calls)
     PAW_pot      :      6.84s CPU      7.67s WALL (      81 calls)
     mix_rho      :      0.69s CPU      0.74s WALL (      76 calls)

     Called by c_bands:
     init_us_2    :      4.17s CPU      4.33s WALL (    9184 calls)
     cegterg      :    199.77s CPU    211.46s WALL (    4256 calls)

     Called by *egterg:
     cdiaghg      :      6.43s CPU      6.63s WALL (   17508 calls)
     h_psi        :    148.85s CPU    159.27s WALL (   17788 calls)
     s_psi        :      7.56s CPU      7.76s WALL (   17788 calls)
     g_psi        :      0.38s CPU      0.40s WALL (   13420 calls)

     Called by h_psi:
     h_psi:calbec :     13.59s CPU     14.40s WALL (   17788 calls)
     vloc_psi     :    126.37s CPU    135.74s WALL (   17788 calls)
     add_vuspsi   :      7.68s CPU      7.88s WALL (   17788 calls)

     General routines
     calbec       :     20.56s CPU     21.76s WALL (   25964 calls)
     fft          :      2.19s CPU      2.56s WALL (    1122 calls)
     ffts         :      0.08s CPU      0.09s WALL (     155 calls)
     fftw         :    102.46s CPU    110.66s WALL (  489080 calls)
     interpolate  :      0.23s CPU      0.29s WALL (      79 calls)

     Parallel routines

     PWSCF        :   4m45.41s CPU   5m12.94s WALL


   This run was terminated on:  22:58: 7  31Oct2025            

=------------------------------------------------------------------------------=
   JOB DONE.
=------------------------------------------------------------------------------=
