
     Program PWSCF v.7.4 starts on 19Nov2025 at 14:16:43 

     This program is part of the open-source Quantum ESPRESSO suite
     for quantum simulation of materials; please cite
         "P. Giannozzi et al., J. Phys.:Condens. Matter 21 395502 (2009);
         "P. Giannozzi et al., J. Phys.:Condens. Matter 29 465901 (2017);
         "P. Giannozzi et al., J. Chem. Phys. 152 154105 (2020);
          URL http://www.quantum-espresso.org", 
     in publications or presentations arising from this work. More details at
     http://www.quantum-espresso.org/quote

     Parallel version (MPI & OpenMP), running on       8 processor cores
     Number of MPI processes:                 8
     Threads/MPI process:                     1

     MPI processes distributed on     1 nodes
     215111 MiB available memory on the printing compute node when the environment starts

     Reading input from TiFe_optimised.in

     Current dimensions of program PWSCF are:
     Max number of different atomic species (ntypx) = 10
     Max number of k-points (npk) =  40000
     Max angular momentum in pseudopotentials (lmaxx) =  4
     file Fe.pbe-spn-kjpaw_psl.0.2.1.UPF: wavefunction(s)  3D renormalized

     IMPORTANT: XC functional enforced from input :
     Exchange-correlation= PBE
                           (   1   4   3   4   0   0   0)
     Any further DFT definition will be discarded
     Please, verify this is what you really want

     Message from routine setup:
     using ibrav=0 with symmetry is DISCOURAGED, use correct ibrav instead

     R & G space division:  proc/nbgrp/npool/nimage =       8
     Subspace diagonalization in iterative solution of the eigenvalue problem:
     a serial algorithm will be used


     Parallelization info
     --------------------
     sticks:   dense  smooth     PW     G-vecs:    dense   smooth      PW
     Min         347     172     50                13774     4875     752
     Max         349     174     51                13775     4876     755
     Sum        2785    1389    401               110195    39007    6031

     Using Slab Decomposition



     bravais-lattice index     =            0
     lattice parameter (alat)  =       5.5533  a.u.
     unit-cell volume          =     174.0962 (a.u.)^3
     number of atoms/cell      =            2
     number of atomic types    =            2
     number of electrons       =        28.00
     number of Kohn-Sham states=           18
     kinetic-energy cutoff     =     140.0000  Ry
     charge density cutoff     =    1120.0000  Ry
     scf convergence threshold =      1.0E-08
     mixing beta               =       0.7000
     number of iterations used =            8  plain     mixing
     energy convergence thresh.=      1.0E-04
     force convergence thresh. =      1.0E-03
     press convergence thresh. =      5.0E-01
     Exchange-correlation= PBE
                           (   1   4   3   4   0   0   0)
     nstep                     =           50


     celldm(1)=   5.553300  celldm(2)=   0.000000  celldm(3)=   0.000000
     celldm(4)=   0.000000  celldm(5)=   0.000000  celldm(6)=   0.000000

     crystal axes: (cart. coord. in units of alat)
               a(1) = (   1.005492   0.000000   0.000000 )  
               a(2) = (   0.000000   1.005492   0.000000 )  
               a(3) = (   0.000000   0.000000   1.005492 )  

     reciprocal axes: (cart. coord. in units 2 pi/alat)
               b(1) = (  0.994538  0.000000  0.000000 )  
               b(2) = (  0.000000  0.994538  0.000000 )  
               b(3) = (  0.000000  0.000000  0.994538 )  


     PseudoPot. # 1 for Ti read from file:
     /vscmnt/antwerpen_storage_home/_user_antwerpen/211/vsc21140/pseudos/ti_pbe_v1.4.uspp.F.UPF
     MD5 check sum: 88a00a6731bd790ddea75d31a80cb452
     Pseudo is Ultrasoft + core correction, Zval = 12.0
     Generated by new atomic code, or converted to UPF format
     Using radial grid of  851 points,  6 beta functions with: 
                l(1) =   0
                l(2) =   0
                l(3) =   1
                l(4) =   1
                l(5) =   2
                l(6) =   2
     Q(r) pseudized with  6 coefficients,  rinner =    1.000   1.000   1.000
                                                       1.000   1.000

     PseudoPot. # 2 for Fe read from file:
     /vscmnt/antwerpen_storage_home/_user_antwerpen/211/vsc21140/pseudos/Fe.pbe-spn-kjpaw_psl.0.2.1.UPF
     MD5 check sum: e86618425769142926afa95317d90200
     Pseudo is Projector augmented-wave + core cor, Zval = 16.0
     Generated using "atomic" code by A. Dal Corso  v.5.0.99 svn rev. 10869
     Shape of augmentation charge: PSQ
     Using radial grid of 1191 points,  6 beta functions with: 
                l(1) =   0
                l(2) =   0
                l(3) =   1
                l(4) =   1
                l(5) =   2
                l(6) =   2
     Q(r) pseudized with 0 coefficients 


     atomic species   valence    mass     pseudopotential
     Ti               12.00    47.86700     Ti( 1.00)
     Fe               16.00    55.84500     Fe( 1.00)

     Starting magnetic structure 
     atomic species   magnetization
     Ti              0.000
     Fe              0.500

      6 Sym. Ops. (no inversion) found



   Cartesian axes

     site n.     atom                  positions (alat units)
         1        Fe     tau(   1) = (   0.5055071   0.5055071   0.5055071  )
         2        Ti     tau(   2) = (   0.0000000   0.0000000   0.0000000  )

     number of k points=   146  Marzari-Vanderbilt smearing, width (Ry)=  0.0050

     Number of k-points >= 100: set verbosity='high' to print them.

     Dense  grid:   110195 G-vectors     FFT dimensions: (  60,  60,  60)

     Smooth grid:    39007 G-vectors     FFT dimensions: (  45,  45,  45)

     Estimated max dynamical RAM per process >     115.92 MB

     Estimated total dynamical RAM >     927.38 MB

     Check: negative core charge=   -0.000005
     Generating pointlists ...
     new r_m :   0.3572 (alat units)  1.9838 (a.u.) for type    1
     new r_m :   0.3572 (alat units)  1.9838 (a.u.) for type    2

     Initial potential from superposition of free atoms

     starting charge      26.9995, renormalised to      28.0000

     negative rho (up, down):  7.047E-04 7.422E-04
     Starting wfcs are   23 randomized atomic wfcs
     Checking if some PAW data can be deallocated... 

     total cpu time spent up to now is        3.7 secs

     per-process dynamical memory:   180.8 Mb

     Self-consistent Calculation

     iteration #  1     ecut=   140.00 Ry     beta= 0.70
     Davidson diagonalization with overlap
     ethr =  1.00E-02,  avg # of iterations =  2.4

     negative rho (up, down):  2.751E-05 1.345E-04

     total cpu time spent up to now is        9.4 secs

     total energy              =    -438.17509459 Ry
     estimated scf accuracy    <      14.76926947 Ry

     total magnetization       =     1.13 Bohr mag/cell
     absolute magnetization    =     2.78 Bohr mag/cell

     iteration #  2     ecut=   140.00 Ry     beta= 0.70
     Davidson diagonalization with overlap
     ethr =  1.00E-02,  avg # of iterations =  5.9

     negative rho (up, down):  1.449E-04 1.113E-05

     total cpu time spent up to now is       18.5 secs

     total energy              =    -448.01606151 Ry
     estimated scf accuracy    <      54.34228263 Ry

     total magnetization       =     0.05 Bohr mag/cell
     absolute magnetization    =     0.19 Bohr mag/cell

     iteration #  3     ecut=   140.00 Ry     beta= 0.70
     Davidson diagonalization with overlap
     ethr =  1.00E-02,  avg # of iterations =  2.9

     negative rho (up, down):  5.012E-04 1.699E-04

     total cpu time spent up to now is       25.1 secs

     total energy              =    -446.60701262 Ry
     estimated scf accuracy    <      13.19209358 Ry

     total magnetization       =     0.16 Bohr mag/cell
     absolute magnetization    =     0.20 Bohr mag/cell

     iteration #  4     ecut=   140.00 Ry     beta= 0.70
     Davidson diagonalization with overlap
     ethr =  1.00E-02,  avg # of iterations =  4.3

     negative rho (up, down):  4.477E-04 1.036E-04

     total cpu time spent up to now is       31.6 secs

     total energy              =    -447.11185456 Ry
     estimated scf accuracy    <       6.86759099 Ry

     total magnetization       =     0.27 Bohr mag/cell
     absolute magnetization    =     1.67 Bohr mag/cell

     iteration #  5     ecut=   140.00 Ry     beta= 0.70
     Davidson diagonalization with overlap
     ethr =  1.00E-02,  avg # of iterations =  3.4

     negative rho (up, down):  6.079E-04 2.074E-04

     total cpu time spent up to now is       37.1 secs

     total energy              =    -448.43225300 Ry
     estimated scf accuracy    <       6.68435681 Ry

     total magnetization       =     0.11 Bohr mag/cell
     absolute magnetization    =     0.20 Bohr mag/cell

     iteration #  6     ecut=   140.00 Ry     beta= 0.70
     Davidson diagonalization with overlap
     ethr =  1.00E-02,  avg # of iterations =  1.2

     negative rho (up, down):  6.477E-04 2.360E-04

     total cpu time spent up to now is       41.6 secs

     total energy              =    -448.57294013 Ry
     estimated scf accuracy    <       1.06322595 Ry

     total magnetization       =     0.04 Bohr mag/cell
     absolute magnetization    =     0.47 Bohr mag/cell

     iteration #  7     ecut=   140.00 Ry     beta= 0.70
     Davidson diagonalization with overlap
     ethr =  3.80E-03,  avg # of iterations =  1.4

     negative rho (up, down):  6.285E-04 2.294E-04

     total cpu time spent up to now is       46.2 secs

     total energy              =    -448.60071630 Ry
     estimated scf accuracy    <       0.40169498 Ry

     total magnetization       =     0.05 Bohr mag/cell
     absolute magnetization    =     0.55 Bohr mag/cell

     iteration #  8     ecut=   140.00 Ry     beta= 0.70
     Davidson diagonalization with overlap
     ethr =  1.43E-03,  avg # of iterations =  1.3

     negative rho (up, down):  6.157E-04 2.989E-04

     total cpu time spent up to now is       50.8 secs

     total energy              =    -448.61482353 Ry
     estimated scf accuracy    <       0.42160150 Ry

     total magnetization       =     0.05 Bohr mag/cell
     absolute magnetization    =     0.54 Bohr mag/cell

     iteration #  9     ecut=   140.00 Ry     beta= 0.70
     Davidson diagonalization with overlap
     ethr =  1.43E-03,  avg # of iterations =  1.0

     negative rho (up, down):  6.645E-04 4.181E-04

     total cpu time spent up to now is       55.3 secs

     total energy              =    -448.53325500 Ry
     estimated scf accuracy    <       0.58395140 Ry

     total magnetization       =     0.07 Bohr mag/cell
     absolute magnetization    =     0.51 Bohr mag/cell

     iteration # 10     ecut=   140.00 Ry     beta= 0.70
     Davidson diagonalization with overlap
     ethr =  1.43E-03,  avg # of iterations =  2.1

     negative rho (up, down):  6.409E-04 3.890E-04

     total cpu time spent up to now is       60.0 secs

     total energy              =    -448.58050945 Ry
     estimated scf accuracy    <       0.04737784 Ry

     total magnetization       =     0.02 Bohr mag/cell
     absolute magnetization    =     0.55 Bohr mag/cell

     iteration # 11     ecut=   140.00 Ry     beta= 0.70
     Davidson diagonalization with overlap
     ethr =  1.69E-04,  avg # of iterations =  2.6

     negative rho (up, down):  6.389E-04 4.128E-04

     total cpu time spent up to now is       65.0 secs

     total energy              =    -448.58568970 Ry
     estimated scf accuracy    <       0.00084472 Ry

     total magnetization       =     0.02 Bohr mag/cell
     absolute magnetization    =     0.53 Bohr mag/cell

     iteration # 12     ecut=   140.00 Ry     beta= 0.70
     Davidson diagonalization with overlap
     c_bands:  1 eigenvalues not converged
     c_bands:  1 eigenvalues not converged
     c_bands:  1 eigenvalues not converged
     c_bands:  1 eigenvalues not converged
     c_bands:  1 eigenvalues not converged
     c_bands:  1 eigenvalues not converged
     ethr =  3.02E-06,  avg # of iterations =  7.5

     negative rho (up, down):  6.286E-04 4.096E-04

     total cpu time spent up to now is       73.9 secs

     total energy              =    -448.58791086 Ry
     estimated scf accuracy    <       0.04920328 Ry

     total magnetization       =     0.01 Bohr mag/cell
     absolute magnetization    =     0.49 Bohr mag/cell

     iteration # 13     ecut=   140.00 Ry     beta= 0.70
     Davidson diagonalization with overlap
     ethr =  3.02E-06,  avg # of iterations =  1.9

     negative rho (up, down):  6.122E-04 4.061E-04

     total cpu time spent up to now is       78.6 secs

     total energy              =    -448.58611534 Ry
     estimated scf accuracy    <       0.03179809 Ry

     total magnetization       =     0.01 Bohr mag/cell
     absolute magnetization    =     0.48 Bohr mag/cell

     iteration # 14     ecut=   140.00 Ry     beta= 0.70
     Davidson diagonalization with overlap
     ethr =  3.02E-06,  avg # of iterations =  3.9

     negative rho (up, down):  6.106E-04 4.055E-04

     total cpu time spent up to now is       84.3 secs

     total energy              =    -448.58650366 Ry
     estimated scf accuracy    <       0.00579175 Ry

     total magnetization       =     0.00 Bohr mag/cell
     absolute magnetization    =     0.43 Bohr mag/cell

     iteration # 15     ecut=   140.00 Ry     beta= 0.70
     Davidson diagonalization with overlap
     ethr =  3.02E-06,  avg # of iterations =  1.3

     negative rho (up, down):  5.135E-04 4.624E-04

     total cpu time spent up to now is       88.9 secs

     total energy              =    -448.58522323 Ry
     estimated scf accuracy    <       0.00230634 Ry

     total magnetization       =     0.01 Bohr mag/cell
     absolute magnetization    =     0.43 Bohr mag/cell

     iteration # 16     ecut=   140.00 Ry     beta= 0.70
     Davidson diagonalization with overlap
     ethr =  3.02E-06,  avg # of iterations =  3.9

     negative rho (up, down):  4.963E-04 4.546E-04

     total cpu time spent up to now is       95.4 secs

     total energy              =    -448.58764792 Ry
     estimated scf accuracy    <       0.00740850 Ry

     total magnetization       =    -0.00 Bohr mag/cell
     absolute magnetization    =     0.11 Bohr mag/cell

     iteration # 17     ecut=   140.00 Ry     beta= 0.70
     Davidson diagonalization with overlap
     ethr =  3.02E-06,  avg # of iterations =  1.4

     negative rho (up, down):  5.476E-04 4.568E-04

     total cpu time spent up to now is       99.9 secs

     total energy              =    -448.58584373 Ry
     estimated scf accuracy    <       0.00996334 Ry

     total magnetization       =    -0.00 Bohr mag/cell
     absolute magnetization    =     0.09 Bohr mag/cell

     iteration # 18     ecut=   140.00 Ry     beta= 0.70
     Davidson diagonalization with overlap
     ethr =  3.02E-06,  avg # of iterations =  4.4

     negative rho (up, down):  4.832E-04 4.807E-04

     total cpu time spent up to now is      106.7 secs

     total energy              =    -448.58628676 Ry
     estimated scf accuracy    <       0.00134207 Ry

     total magnetization       =     0.00 Bohr mag/cell
     absolute magnetization    =     0.19 Bohr mag/cell

     iteration # 19     ecut=   140.00 Ry     beta= 0.70
     Davidson diagonalization with overlap
     ethr =  3.02E-06,  avg # of iterations =  3.6

     negative rho (up, down):  4.899E-04 4.807E-04

     total cpu time spent up to now is      112.7 secs

     WARNING: integrated charge=    28.00179477, expected=    28.00000000

     total energy              =    -448.58418874 Ry
     estimated scf accuracy    <       0.00209413 Ry

     total magnetization       =     0.00 Bohr mag/cell
     absolute magnetization    =     0.00 Bohr mag/cell

     iteration # 20     ecut=   140.00 Ry     beta= 0.70
     Davidson diagonalization with overlap
     ethr =  3.02E-06,  avg # of iterations =  1.3

     negative rho (up, down):  4.875E-04 4.884E-04

     total cpu time spent up to now is      117.3 secs

     WARNING: integrated charge=    28.00410565, expected=    28.00000000

     total energy              =    -448.58180017 Ry
     estimated scf accuracy    <       0.00019865 Ry

     total magnetization       =    -0.00 Bohr mag/cell
     absolute magnetization    =     0.01 Bohr mag/cell

     iteration # 21     ecut=   140.00 Ry     beta= 0.70
     Davidson diagonalization with overlap
     ethr =  7.09E-07,  avg # of iterations =  2.9

     negative rho (up, down):  4.900E-04 4.862E-04

     total cpu time spent up to now is      122.4 secs

     WARNING: integrated charge=    28.00077566, expected=    28.00000000

     total energy              =    -448.58700674 Ry
     estimated scf accuracy    <       0.00000113 Ry

     total magnetization       =    -0.00 Bohr mag/cell
     absolute magnetization    =     0.00 Bohr mag/cell

     iteration # 22     ecut=   140.00 Ry     beta= 0.70
     Davidson diagonalization with overlap
     ethr =  4.03E-09,  avg # of iterations =  5.1

     negative rho (up, down):  4.887E-04 4.870E-04

     total cpu time spent up to now is      129.3 secs

     WARNING: integrated charge=    27.99995090, expected=    28.00000000

     total energy              =    -448.58700972 Ry
     estimated scf accuracy    <       0.00000046 Ry

     total magnetization       =     0.00 Bohr mag/cell
     absolute magnetization    =     0.01 Bohr mag/cell

     iteration # 23     ecut=   140.00 Ry     beta= 0.70
     Davidson diagonalization with overlap
     ethr =  1.63E-09,  avg # of iterations =  2.9
     Minimization algorithm failed to find Fermi energy: reverting to bisection
     Possible cause: smearing is larger than the electronic band-gap.

     negative rho (up, down):  4.882E-04 4.878E-04

     total cpu time spent up to now is      134.6 secs

     WARNING: integrated charge=    27.99988712, expected=    28.00000000

     total energy              =    -448.58700982 Ry
     estimated scf accuracy    <       0.00000039 Ry

     total magnetization       =     0.00 Bohr mag/cell
     absolute magnetization    =     0.00 Bohr mag/cell

     iteration # 24     ecut=   140.00 Ry     beta= 0.70
     Davidson diagonalization with overlap
     ethr =  1.40E-09,  avg # of iterations =  2.5

     negative rho (up, down):  4.881E-04 4.878E-04

     total cpu time spent up to now is      139.6 secs

     WARNING: integrated charge=    27.99994265, expected=    28.00000000

     total energy              =    -448.58700992 Ry
     estimated scf accuracy    <       0.00000009 Ry

     total magnetization       =    -0.00 Bohr mag/cell
     absolute magnetization    =     0.00 Bohr mag/cell

     iteration # 25     ecut=   140.00 Ry     beta= 0.70
     Davidson diagonalization with overlap
     ethr =  3.18E-10,  avg # of iterations =  1.9

     negative rho (up, down):  4.881E-04 4.878E-04

     Magnetic moment per site  (integrated on atomic sphere of radius R)
     atom   1 (R=0.357)  charge= 14.6912  magn=  0.0003
     atom   2 (R=0.357)  charge=  9.9783  magn= -0.0002

     total cpu time spent up to now is      144.4 secs

     End of self-consistent calculation

     Number of k-points >= 100: set verbosity='high' to print the bands.

     the Fermi energy is    17.2484 ev

!    total energy              =    -448.58700993 Ry
     estimated scf accuracy    <          9.7E-10 Ry
     smearing contrib. (-TS)   =       0.00006586 Ry
     internal energy E=F+TS    =    -448.58707578 Ry

     The total energy is F=E-TS. E is the sum of the following terms:
     one-electron contribution =    -153.53899725 Ry
     hartree contribution      =      92.36253598 Ry
     xc contribution           =     -52.85881595 Ry
     ewald contribution        =    -258.39830301 Ry
     one-center paw contrib.   =     -76.15349556 Ry

     total magnetization       =     0.00 Bohr mag/cell
     absolute magnetization    =     0.00 Bohr mag/cell

     convergence has been achieved in  25 iterations

     negative rho (up, down):  4.881E-04 4.878E-04

     Forces acting on atoms (cartesian axes, Ry/au):

     atom    1 type  2   force =    -0.00170134   -0.00170134   -0.00170134
     atom    2 type  1   force =     0.00170134    0.00170134    0.00170134

     Total force =     0.004167     Total SCF correction =     0.000001


     Computing stress (Cartesian axis) and pressure


     negative rho (up, down):  4.881E-04 4.878E-04
          total   stress  (Ry/bohr**3)                   (kbar)     P=        0.15
   0.00000102  -0.00000001  -0.00000001            0.15       -0.00       -0.00
  -0.00000001   0.00000102  -0.00000001           -0.00        0.15       -0.00
  -0.00000001  -0.00000001   0.00000102           -0.00       -0.00        0.15


     BFGS Geometry Optimization
     Energy error            =      1.7E-05 Ry
     Gradient error          =      1.7E-03 Ry/Bohr
     Cell gradient error     =      1.5E-01 kbar

     number of scf cycles    =   1
     number of bfgs steps    =   0

     enthalpy           new  =    -448.5870099279 Ry

     new trust radius        =       0.0029468110 bohr
     new conv_thr            =       0.0000000100 Ry

     new unit-cell volume =    174.10951 a.u.^3 (    25.80037 Ang^3 )
     density =      6.67501 g/cm^3

CELL_PARAMETERS (alat=  5.55330037)
   1.005517577  -0.000000213  -0.000000213
  -0.000000213   1.005517577  -0.000000213
  -0.000000213  -0.000000213   1.005517577

ATOMIC_POSITIONS (crystal)
Fe               0.5024413074        0.5024413074        0.5024413074
Ti               0.0003046926        0.0003046926        0.0003046926



     Writing config-only to output data dir ./outputs/TiFe.save/ :
     XML data file     NEW-OLD atomic charge density approx. for the potential
     New effective cutoffs (rho, wfc): 1119.26  139.99

     Check: negative core charge=   -0.000005

     negative rho (up, down):  4.875E-04 4.872E-04
     Generating pointlists ...

     total cpu time spent up to now is      147.2 secs

     per-process dynamical memory:   185.3 Mb

     Self-consistent Calculation

     iteration #  1     ecut=   140.00 Ry     beta= 0.70
     Davidson diagonalization with overlap
     ethr =  1.00E-06,  avg # of iterations =  4.7

     Threshold (ethr) on eigenvalues was too large:
     Diagonalizing with lowered threshold

     Davidson diagonalization with overlap
     ethr =  2.06E-08,  avg # of iterations =  4.4

     negative rho (up, down):  4.875E-04 4.873E-04

     total cpu time spent up to now is      161.6 secs

     total energy              =    -448.58702474 Ry
     estimated scf accuracy    <       0.00000467 Ry

     total magnetization       =     0.00 Bohr mag/cell
     absolute magnetization    =     0.00 Bohr mag/cell

     iteration #  2     ecut=   140.00 Ry     beta= 0.70
     Davidson diagonalization with overlap
     ethr =  1.67E-08,  avg # of iterations =  2.0

     negative rho (up, down):  4.876E-04 4.874E-04

     total cpu time spent up to now is      166.8 secs

     total energy              =    -448.58702518 Ry
     estimated scf accuracy    <       0.00000047 Ry

     total magnetization       =     0.00 Bohr mag/cell
     absolute magnetization    =     0.00 Bohr mag/cell

     iteration #  3     ecut=   140.00 Ry     beta= 0.70
     Davidson diagonalization with overlap
     ethr =  1.67E-09,  avg # of iterations =  4.6

     negative rho (up, down):  4.874E-04 4.873E-04

     total cpu time spent up to now is      173.1 secs

     total energy              =    -448.58702443 Ry
     estimated scf accuracy    <       0.00001324 Ry

     total magnetization       =     0.00 Bohr mag/cell
     absolute magnetization    =     0.00 Bohr mag/cell

     iteration #  4     ecut=   140.00 Ry     beta= 0.70
     Davidson diagonalization with overlap
     ethr =  1.67E-09,  avg # of iterations =  4.5

     negative rho (up, down):  4.875E-04 4.873E-04

     total cpu time spent up to now is      179.0 secs

     total energy              =    -448.58702533 Ry
     estimated scf accuracy    <       0.00000048 Ry

     total magnetization       =     0.00 Bohr mag/cell
     absolute magnetization    =     0.00 Bohr mag/cell

     iteration #  5     ecut=   140.00 Ry     beta= 0.70
     Davidson diagonalization with overlap
     ethr =  1.67E-09,  avg # of iterations =  1.0

     negative rho (up, down):  4.875E-04 4.873E-04

     Magnetic moment per site  (integrated on atomic sphere of radius R)
     atom   1 (R=0.357)  charge= 14.6911  magn=  0.0001
     atom   2 (R=0.357)  charge=  9.9781  magn= -0.0001

     total cpu time spent up to now is      183.5 secs

     End of self-consistent calculation

     Number of k-points >= 100: set verbosity='high' to print the bands.

     the Fermi energy is    17.2469 ev

!    total energy              =    -448.58702535 Ry
     estimated scf accuracy    <          4.2E-09 Ry
     smearing contrib. (-TS)   =       0.00006568 Ry
     internal energy E=F+TS    =    -448.58709103 Ry

     The total energy is F=E-TS. E is the sum of the following terms:
     one-electron contribution =    -153.54708055 Ry
     hartree contribution      =      92.36517554 Ry
     xc contribution           =     -52.85867931 Ry
     ewald contribution        =    -258.39301597 Ry
     one-center paw contrib.   =     -76.15349073 Ry

     total magnetization       =     0.00 Bohr mag/cell
     absolute magnetization    =     0.00 Bohr mag/cell

     convergence has been achieved in   5 iterations

     negative rho (up, down):  4.875E-04 4.873E-04

     Forces acting on atoms (cartesian axes, Ry/au):

     atom    1 type  2   force =    -0.00133003   -0.00133003   -0.00133003
     atom    2 type  1   force =     0.00133003    0.00133003    0.00133003

     Total force =     0.003258     Total SCF correction =     0.000050


     Computing stress (Cartesian axis) and pressure


     negative rho (up, down):  4.875E-04 4.873E-04
          total   stress  (Ry/bohr**3)                   (kbar)     P=       -0.18
  -0.00000125  -0.00000006  -0.00000006           -0.18       -0.01       -0.01
  -0.00000006  -0.00000125  -0.00000006           -0.01       -0.18       -0.01
  -0.00000006  -0.00000006  -0.00000125           -0.01       -0.01       -0.18

     Energy error            =      1.5E-05 Ry
     Gradient error          =      1.3E-03 Ry/Bohr
     Cell gradient error     =      1.8E-01 kbar

     number of scf cycles    =   2
     number of bfgs steps    =   1

     enthalpy           old  =    -448.5870099279 Ry
     enthalpy           new  =    -448.5870253488 Ry

     CASE: enthalpy          _new < enthalpy          _old

     new trust radius        =       0.0032415731 bohr
     new conv_thr            =            1.0E-10 Ry

     new unit-cell volume =    174.08723 a.u.^3 (    25.79707 Ang^3 )
     density =      6.67587 g/cm^3

CELL_PARAMETERS (alat=  5.55330037)
   1.005474694  -0.000002187  -0.000002187
  -0.000002187   1.005474694  -0.000002187
  -0.000002187  -0.000002187   1.005474694

ATOMIC_POSITIONS (crystal)
Fe               0.5021061456        0.5021061456        0.5021061456
Ti               0.0006398544        0.0006398544        0.0006398544



     Writing config-only to output data dir ./outputs/TiFe.save/ :
     XML data file     NEW-OLD atomic charge density approx. for the potential
     New effective cutoffs (rho, wfc): 1119.36  140.00

     Check: negative core charge=   -0.000005

     negative rho (up, down):  4.854E-04 4.853E-04
     Generating pointlists ...

     total cpu time spent up to now is      186.4 secs

     per-process dynamical memory:   185.3 Mb

     Self-consistent Calculation

     iteration #  1     ecut=   140.00 Ry     beta= 0.70
     Davidson diagonalization with overlap
     ethr =  1.00E-06,  avg # of iterations =  4.9

     Threshold (ethr) on eigenvalues was too large:
     Diagonalizing with lowered threshold

     Davidson diagonalization with overlap
     ethr =  2.82E-08,  avg # of iterations =  4.2

     negative rho (up, down):  4.851E-04 4.850E-04

     total cpu time spent up to now is      200.6 secs

     total energy              =    -448.58703620 Ry
     estimated scf accuracy    <       0.00000678 Ry

     total magnetization       =     0.00 Bohr mag/cell
     absolute magnetization    =     0.00 Bohr mag/cell

     iteration #  2     ecut=   140.00 Ry     beta= 0.70
     Davidson diagonalization with overlap
     ethr =  2.42E-08,  avg # of iterations =  4.6

     negative rho (up, down):  4.856E-04 4.855E-04

     total cpu time spent up to now is      206.5 secs

     total energy              =    -448.58702548 Ry
     estimated scf accuracy    <       0.00014230 Ry

     total magnetization       =     0.00 Bohr mag/cell
     absolute magnetization    =     0.00 Bohr mag/cell

     iteration #  3     ecut=   140.00 Ry     beta= 0.70
     Davidson diagonalization with overlap
     ethr =  2.42E-08,  avg # of iterations =  4.5

     negative rho (up, down):  4.855E-04 4.854E-04

     total cpu time spent up to now is      212.3 secs

     total energy              =    -448.58703687 Ry
     estimated scf accuracy    <       0.00001878 Ry

     total magnetization       =     0.00 Bohr mag/cell
     absolute magnetization    =     0.00 Bohr mag/cell

     iteration #  4     ecut=   140.00 Ry     beta= 0.70
     Davidson diagonalization with overlap
     ethr =  2.42E-08,  avg # of iterations =  1.9

     negative rho (up, down):  4.854E-04 4.854E-04

     total cpu time spent up to now is      217.1 secs

     total energy              =    -448.58703781 Ry
     estimated scf accuracy    <       0.00000016 Ry

     total magnetization       =     0.00 Bohr mag/cell
     absolute magnetization    =     0.00 Bohr mag/cell

     iteration #  5     ecut=   140.00 Ry     beta= 0.70
     Davidson diagonalization with overlap
     ethr =  5.64E-10,  avg # of iterations =  4.7

     negative rho (up, down):  4.855E-04 4.854E-04

     total cpu time spent up to now is      222.9 secs

     total energy              =    -448.58703788 Ry
     estimated scf accuracy    <       0.00000016 Ry

     total magnetization       =     0.00 Bohr mag/cell
     absolute magnetization    =     0.00 Bohr mag/cell

     iteration #  6     ecut=   140.00 Ry     beta= 0.70
     Davidson diagonalization with overlap
     ethr =  5.64E-10,  avg # of iterations =  1.0

     negative rho (up, down):  4.855E-04 4.854E-04

     total cpu time spent up to now is      227.4 secs

     total energy              =    -448.58703789 Ry
     estimated scf accuracy    <       0.00000003 Ry

     total magnetization       =     0.00 Bohr mag/cell
     absolute magnetization    =     0.00 Bohr mag/cell

     iteration #  7     ecut=   140.00 Ry     beta= 0.70
     Davidson diagonalization with overlap
     ethr =  9.60E-11,  avg # of iterations =  3.0

     negative rho (up, down):  4.855E-04 4.854E-04

     total cpu time spent up to now is      232.4 secs

     total energy              =    -448.58703789 Ry
     estimated scf accuracy    <          8.1E-10 Ry

     total magnetization       =     0.00 Bohr mag/cell
     absolute magnetization    =     0.00 Bohr mag/cell

     iteration #  8     ecut=   140.00 Ry     beta= 0.70
     Davidson diagonalization with overlap
     ethr =  2.89E-12,  avg # of iterations =  5.4

     negative rho (up, down):  4.855E-04 4.854E-04

     total cpu time spent up to now is      239.9 secs

     total energy              =    -448.58703789 Ry
     estimated scf accuracy    <          5.5E-10 Ry

     total magnetization       =     0.00 Bohr mag/cell
     absolute magnetization    =     0.00 Bohr mag/cell

     iteration #  9     ecut=   140.00 Ry     beta= 0.70
     Davidson diagonalization with overlap
     ethr =  1.97E-12,  avg # of iterations =  1.4

     negative rho (up, down):  4.855E-04 4.854E-04

     Magnetic moment per site  (integrated on atomic sphere of radius R)
     atom   1 (R=0.357)  charge= 14.6912  magn=  0.0000
     atom   2 (R=0.357)  charge=  9.9783  magn= -0.0000

     total cpu time spent up to now is      244.5 secs

     End of self-consistent calculation

     Number of k-points >= 100: set verbosity='high' to print the bands.

     the Fermi energy is    17.2497 ev

!    total energy              =    -448.58703789 Ry
     estimated scf accuracy    <          3.3E-11 Ry
     smearing contrib. (-TS)   =       0.00006542 Ry
     internal energy E=F+TS    =    -448.58710331 Ry

     The total energy is F=E-TS. E is the sum of the following terms:
     one-electron contribution =    -153.52739888 Ry
     hartree contribution      =      92.35766192 Ry
     xc contribution           =     -52.85878952 Ry
     ewald contribution        =    -258.40507984 Ry
     one-center paw contrib.   =     -76.15349699 Ry

     total magnetization       =     0.00 Bohr mag/cell
     absolute magnetization    =     0.00 Bohr mag/cell

     convergence has been achieved in   9 iterations

     negative rho (up, down):  4.855E-04 4.854E-04

     Forces acting on atoms (cartesian axes, Ry/au):

     atom    1 type  2   force =    -0.00090599   -0.00090599   -0.00090599
     atom    2 type  1   force =     0.00090599    0.00090599    0.00090599

     Total force =     0.002219     Total SCF correction =     0.000003


     Computing stress (Cartesian axis) and pressure


     negative rho (up, down):  4.855E-04 4.854E-04
          total   stress  (Ry/bohr**3)                   (kbar)     P=        0.01
   0.00000005  -0.00000006  -0.00000006            0.01       -0.01       -0.01
  -0.00000006   0.00000005  -0.00000006           -0.01        0.01       -0.01
  -0.00000006  -0.00000006   0.00000005           -0.01       -0.01        0.01

     Energy error            =      1.3E-05 Ry
     Gradient error          =      9.1E-04 Ry/Bohr
     Cell gradient error     =      9.5E-03 kbar

     bfgs converged in   3 scf cycles and   2 bfgs steps
     (criteria: energy <  1.0E-04 Ry, force <  1.0E-03 Ry/Bohr, cell <  5.0E-01 kbar)

     End of BFGS Geometry Optimization

     Final enthalpy           =    -448.5870378910 Ry

     File ./outputs/TiFe.bfgs deleted, as requested
Begin final coordinates
     new unit-cell volume =    174.08723 a.u.^3 (    25.79707 Ang^3 )
     density =      6.67587 g/cm^3

CELL_PARAMETERS (alat=  5.55330037)
   1.005474694  -0.000002187  -0.000002187
  -0.000002187   1.005474694  -0.000002187
  -0.000002187  -0.000002187   1.005474694

ATOMIC_POSITIONS (crystal)
Fe               0.5021061456        0.5021061456        0.5021061456
Ti               0.0006398544        0.0006398544        0.0006398544
End final coordinates



     Writing config-only to output data dir ./outputs/TiFe.save/ :
     XML data file
     Final scf calculation at the relaxed structure.
     The G-vectors are recalculated for the final unit cell
     Results may differ from those at the preceding step.

     Parallelization info
     --------------------
     sticks:   dense  smooth     PW     G-vecs:    dense   smooth      PW
     Min         347     172     50                13774     4875     752
     Max         349     174     51                13775     4876     755
     Sum        2785    1389    401               110195    39007    6031

     Using Slab Decomposition



     bravais-lattice index     =            0
     lattice parameter (alat)  =       5.5533  a.u.
     unit-cell volume          =     174.0872 (a.u.)^3
     number of atoms/cell      =            2
     number of atomic types    =            2
     number of electrons       =        28.00
     number of Kohn-Sham states=           18
     kinetic-energy cutoff     =     140.0000  Ry
     charge density cutoff     =    1120.0000  Ry
     scf convergence threshold =      1.0E-10
     mixing beta               =       0.7000
     number of iterations used =            8  plain     mixing
     press convergence thresh. =      5.0E-01
     Exchange-correlation= PBE
                           (   1   4   3   4   0   0   0)

     celldm(1)=   5.553300  celldm(2)=   0.000000  celldm(3)=   0.000000
     celldm(4)=   0.000000  celldm(5)=   0.000000  celldm(6)=   0.000000

     crystal axes: (cart. coord. in units of alat)
               a(1) = (   1.005475  -0.000002  -0.000002 )  
               a(2) = (  -0.000002   1.005475  -0.000002 )  
               a(3) = (  -0.000002  -0.000002   1.005475 )  

     reciprocal axes: (cart. coord. in units 2 pi/alat)
               b(1) = (  0.994555  0.000002  0.000002 )  
               b(2) = (  0.000002  0.994555  0.000002 )  
               b(3) = (  0.000002  0.000002  0.994555 )  


     PseudoPot. # 1 for Ti read from file:
     /vscmnt/antwerpen_storage_home/_user_antwerpen/211/vsc21140/pseudos/ti_pbe_v1.4.uspp.F.UPF
     MD5 check sum: 88a00a6731bd790ddea75d31a80cb452
     Pseudo is Ultrasoft + core correction, Zval = 12.0
     Generated by new atomic code, or converted to UPF format
     Using radial grid of  851 points,  6 beta functions with: 
                l(1) =   0
                l(2) =   0
                l(3) =   1
                l(4) =   1
                l(5) =   2
                l(6) =   2
     Q(r) pseudized with  6 coefficients,  rinner =    1.000   1.000   1.000
                                                       1.000   1.000

     PseudoPot. # 2 for Fe read from file:
     /vscmnt/antwerpen_storage_home/_user_antwerpen/211/vsc21140/pseudos/Fe.pbe-spn-kjpaw_psl.0.2.1.UPF
     MD5 check sum: e86618425769142926afa95317d90200
     Pseudo is Projector augmented-wave + core cor, Zval = 16.0
     Generated using "atomic" code by A. Dal Corso  v.5.0.99 svn rev. 10869
     Shape of augmentation charge: PSQ
     Using radial grid of 1191 points,  6 beta functions with: 
                l(1) =   0
                l(2) =   0
                l(3) =   1
                l(4) =   1
                l(5) =   2
                l(6) =   2
     Q(r) pseudized with 0 coefficients 


     atomic species   valence    mass     pseudopotential
     Ti               12.00    47.86700     Ti( 1.00)
     Fe               16.00    55.84500     Fe( 1.00)

     Starting magnetic structure 
     atomic species   magnetization
     Ti             -0.000
     Fe              0.000

      6 Sym. Ops. (no inversion) found



   Cartesian axes

     site n.     atom                  positions (alat units)
         1        Fe     tau(   1) = (   0.5048528   0.5048528   0.5048528  )
         2        Ti     tau(   2) = (   0.0006434   0.0006434   0.0006434  )

     number of k points=   146  Marzari-Vanderbilt smearing, width (Ry)=  0.0050

     Number of k-points >= 100: set verbosity='high' to print them.

     Dense  grid:   110195 G-vectors     FFT dimensions: (  60,  60,  60)

     Smooth grid:    39007 G-vectors     FFT dimensions: (  45,  45,  45)

     Estimated max dynamical RAM per process >     116.13 MB

     Estimated total dynamical RAM >     929.06 MB

     Check: negative core charge=   -0.000005
     Generating pointlists ...

     Initial potential from superposition of free atoms

     starting charge      26.9995, renormalised to      28.0000

     negative rho (up, down):  7.207E-04 7.207E-04
     Starting wfcs are   23 randomized atomic wfcs
     Checking if some PAW data can be deallocated... 

     total cpu time spent up to now is      249.6 secs

     per-process dynamical memory:   182.6 Mb

     Self-consistent Calculation

     iteration #  1     ecut=   140.00 Ry     beta= 0.70
     Davidson diagonalization with overlap
     c_bands:  1 eigenvalues not converged
     c_bands:  1 eigenvalues not converged
     c_bands:  1 eigenvalues not converged
     c_bands:  1 eigenvalues not converged
     c_bands:  1 eigenvalues not converged
     c_bands:  1 eigenvalues not converged
     c_bands:  1 eigenvalues not converged
     c_bands:  1 eigenvalues not converged
     c_bands:  1 eigenvalues not converged
     c_bands:  1 eigenvalues not converged
     c_bands:  1 eigenvalues not converged
     c_bands:  1 eigenvalues not converged
     c_bands:  1 eigenvalues not converged
     c_bands:  1 eigenvalues not converged
     c_bands:  1 eigenvalues not converged
     c_bands:  1 eigenvalues not converged
     c_bands:  1 eigenvalues not converged
     c_bands:  1 eigenvalues not converged
     c_bands:  1 eigenvalues not converged
     c_bands:  1 eigenvalues not converged
     c_bands:  1 eigenvalues not converged
     c_bands:  1 eigenvalues not converged
     c_bands:  1 eigenvalues not converged
     c_bands:  1 eigenvalues not converged
     c_bands:  1 eigenvalues not converged
     c_bands:  1 eigenvalues not converged
     c_bands:  1 eigenvalues not converged
     c_bands:  1 eigenvalues not converged
     c_bands:  1 eigenvalues not converged
     c_bands:  1 eigenvalues not converged
     c_bands:  1 eigenvalues not converged
     c_bands:  1 eigenvalues not converged
     c_bands:  1 eigenvalues not converged
     c_bands:  1 eigenvalues not converged
     c_bands:  1 eigenvalues not converged
     c_bands:  1 eigenvalues not converged
     ethr =  1.00E-06,  avg # of iterations = 16.5

     negative rho (up, down):  5.820E-05 5.822E-05

     total cpu time spent up to now is      274.5 secs

     WARNING: integrated charge=    27.99826789, expected=    28.00000000

     total energy              =    -434.66786238 Ry
     estimated scf accuracy    <      17.77144375 Ry

     total magnetization       =     0.00 Bohr mag/cell
     absolute magnetization    =     0.00 Bohr mag/cell

     iteration #  2     ecut=   140.00 Ry     beta= 0.70
     Davidson diagonalization with overlap
     ethr =  1.00E-02,  avg # of iterations =  6.4

     negative rho (up, down):  2.469E-05 2.469E-05

     total cpu time spent up to now is      284.3 secs

     WARNING: integrated charge=    27.99867903, expected=    28.00000000

     total energy              =    -448.63583253 Ry
     estimated scf accuracy    <      67.00212974 Ry

     total magnetization       =    -0.00 Bohr mag/cell
     absolute magnetization    =     0.00 Bohr mag/cell

     iteration #  3     ecut=   140.00 Ry     beta= 0.70
     Davidson diagonalization with overlap
     ethr =  1.00E-02,  avg # of iterations =  3.1

     negative rho (up, down):  1.392E-04 1.392E-04

     total cpu time spent up to now is      290.9 secs

     WARNING: integrated charge=    27.99894134, expected=    28.00000000

     total energy              =    -448.65461980 Ry
     estimated scf accuracy    <      17.21625667 Ry

     total magnetization       =    -0.00 Bohr mag/cell
     absolute magnetization    =     0.00 Bohr mag/cell

     iteration #  4     ecut=   140.00 Ry     beta= 0.70
     Davidson diagonalization with overlap
     ethr =  1.00E-02,  avg # of iterations =  2.1

     negative rho (up, down):  1.494E-04 1.494E-04

     total cpu time spent up to now is      296.2 secs

     WARNING: integrated charge=    27.99896280, expected=    28.00000000

     total energy              =    -449.15489600 Ry
     estimated scf accuracy    <       5.22472926 Ry

     total magnetization       =     0.00 Bohr mag/cell
     absolute magnetization    =     0.00 Bohr mag/cell

     iteration #  5     ecut=   140.00 Ry     beta= 0.70
     Davidson diagonalization with overlap
     ethr =  1.00E-02,  avg # of iterations =  1.0

     negative rho (up, down):  1.418E-04 1.418E-04

     total cpu time spent up to now is      300.7 secs

     WARNING: integrated charge=    27.99893416, expected=    28.00000000

     total energy              =    -449.14066285 Ry
     estimated scf accuracy    <       4.80144573 Ry

     total magnetization       =     0.00 Bohr mag/cell
     absolute magnetization    =     0.00 Bohr mag/cell

     iteration #  6     ecut=   140.00 Ry     beta= 0.70
     Davidson diagonalization with overlap
     ethr =  1.00E-02,  avg # of iterations =  1.0

     negative rho (up, down):  4.187E-04 4.185E-04

     total cpu time spent up to now is      305.2 secs

     WARNING: integrated charge=    27.99933931, expected=    28.00000000

     total energy              =    -448.14155223 Ry
     estimated scf accuracy    <       4.21981982 Ry

     total magnetization       =     0.00 Bohr mag/cell
     absolute magnetization    =     0.00 Bohr mag/cell

     iteration #  7     ecut=   140.00 Ry     beta= 0.70
     Davidson diagonalization with overlap
     ethr =  1.00E-02,  avg # of iterations =  2.1

     negative rho (up, down):  4.456E-04 4.454E-04

     total cpu time spent up to now is      310.1 secs

     WARNING: integrated charge=    27.99942956, expected=    28.00000000

     total energy              =    -448.58327354 Ry
     estimated scf accuracy    <       0.38193857 Ry

     total magnetization       =    -0.00 Bohr mag/cell
     absolute magnetization    =     0.00 Bohr mag/cell

     iteration #  8     ecut=   140.00 Ry     beta= 0.70
     Davidson diagonalization with overlap
     ethr =  1.36E-03,  avg # of iterations =  3.6

     negative rho (up, down):  5.330E-04 5.324E-04

     total cpu time spent up to now is      315.5 secs

     WARNING: integrated charge=    27.99993031, expected=    28.00000000

     total energy              =    -448.57075215 Ry
     estimated scf accuracy    <       0.55923607 Ry

     total magnetization       =     0.00 Bohr mag/cell
     absolute magnetization    =     0.00 Bohr mag/cell

     iteration #  9     ecut=   140.00 Ry     beta= 0.70
     Davidson diagonalization with overlap
     ethr =  1.36E-03,  avg # of iterations =  2.0

     negative rho (up, down):  5.310E-04 5.302E-04

     total cpu time spent up to now is      320.6 secs

     WARNING: integrated charge=    27.99993024, expected=    28.00000000

     total energy              =    -448.62043788 Ry
     estimated scf accuracy    <       0.09367904 Ry

     total magnetization       =     0.00 Bohr mag/cell
     absolute magnetization    =     0.00 Bohr mag/cell

     iteration # 10     ecut=   140.00 Ry     beta= 0.70
     Davidson diagonalization with overlap
     ethr =  3.35E-04,  avg # of iterations =  3.3

     negative rho (up, down):  4.009E-04 4.008E-04

     total cpu time spent up to now is      325.9 secs

     WARNING: integrated charge=    27.99999164, expected=    28.00000000

     total energy              =    -448.55196622 Ry
     estimated scf accuracy    <       0.78719042 Ry

     total magnetization       =    -0.00 Bohr mag/cell
     absolute magnetization    =     0.00 Bohr mag/cell

     iteration # 11     ecut=   140.00 Ry     beta= 0.70
     Davidson diagonalization with overlap
     ethr =  3.35E-04,  avg # of iterations =  2.9

     negative rho (up, down):  3.236E-04 3.232E-04

     total cpu time spent up to now is      331.0 secs

     WARNING: integrated charge=    28.00000923, expected=    28.00000000

     total energy              =    -448.58966260 Ry
     estimated scf accuracy    <       0.01938060 Ry

     total magnetization       =    -0.00 Bohr mag/cell
     absolute magnetization    =     0.00 Bohr mag/cell

     iteration # 12     ecut=   140.00 Ry     beta= 0.70
     Davidson diagonalization with overlap
     ethr =  6.92E-05,  avg # of iterations =  4.6

     negative rho (up, down):  3.090E-04 3.090E-04

     total cpu time spent up to now is      337.7 secs

     WARNING: integrated charge=    28.00000578, expected=    28.00000000

     total energy              =    -448.62316802 Ry
     estimated scf accuracy    <       0.17450144 Ry

     total magnetization       =     0.00 Bohr mag/cell
     absolute magnetization    =     0.00 Bohr mag/cell

     iteration # 13     ecut=   140.00 Ry     beta= 0.70
     Davidson diagonalization with overlap
     ethr =  6.92E-05,  avg # of iterations =  3.1

     negative rho (up, down):  3.113E-04 3.112E-04

     total cpu time spent up to now is      342.8 secs

     WARNING: integrated charge=    28.00000460, expected=    28.00000000

     total energy              =    -448.62903934 Ry
     estimated scf accuracy    <       0.52532173 Ry

     total magnetization       =     0.00 Bohr mag/cell
     absolute magnetization    =     0.00 Bohr mag/cell

     iteration # 14     ecut=   140.00 Ry     beta= 0.70
     Davidson diagonalization with overlap
     ethr =  6.92E-05,  avg # of iterations =  1.0

     negative rho (up, down):  4.124E-04 4.143E-04

     total cpu time spent up to now is      347.3 secs

     total energy              =    -448.58306839 Ry
     estimated scf accuracy    <       0.52050680 Ry

     total magnetization       =     0.00 Bohr mag/cell
     absolute magnetization    =     0.00 Bohr mag/cell

     iteration # 15     ecut=   140.00 Ry     beta= 0.70
     Davidson diagonalization with overlap
     ethr =  6.92E-05,  avg # of iterations =  3.6

     negative rho (up, down):  4.732E-04 4.748E-04

     total cpu time spent up to now is      353.1 secs

     WARNING: integrated charge=    28.00002917, expected=    28.00000000

     total energy              =    -448.58643085 Ry
     estimated scf accuracy    <       0.09076124 Ry

     total magnetization       =    -0.00 Bohr mag/cell
     absolute magnetization    =     0.00 Bohr mag/cell

     iteration # 16     ecut=   140.00 Ry     beta= 0.70
     Davidson diagonalization with overlap
     ethr =  6.92E-05,  avg # of iterations =  1.8

     negative rho (up, down):  5.913E-04 5.923E-04

     total cpu time spent up to now is      357.9 secs

     WARNING: integrated charge=    27.99998735, expected=    28.00000000

     total energy              =    -448.57967386 Ry
     estimated scf accuracy    <       0.02928227 Ry

     total magnetization       =    -0.00 Bohr mag/cell
     absolute magnetization    =     0.00 Bohr mag/cell

     iteration # 17     ecut=   140.00 Ry     beta= 0.70
     Davidson diagonalization with overlap
     ethr =  6.92E-05,  avg # of iterations =  4.7

     negative rho (up, down):  5.382E-04 5.390E-04

     total cpu time spent up to now is      364.5 secs

     WARNING: integrated charge=    28.00000315, expected=    28.00000000

     total energy              =    -448.58741785 Ry
     estimated scf accuracy    <       0.14468722 Ry

     total magnetization       =    -0.00 Bohr mag/cell
     absolute magnetization    =     0.00 Bohr mag/cell

     iteration # 18     ecut=   140.00 Ry     beta= 0.70
     Davidson diagonalization with overlap
     ethr =  6.92E-05,  avg # of iterations =  1.5

     negative rho (up, down):  5.363E-04 5.372E-04

     total cpu time spent up to now is      369.2 secs

     WARNING: integrated charge=    28.00000408, expected=    28.00000000

     total energy              =    -448.58930108 Ry
     estimated scf accuracy    <       0.04141836 Ry

     total magnetization       =    -0.00 Bohr mag/cell
     absolute magnetization    =     0.00 Bohr mag/cell

     iteration # 19     ecut=   140.00 Ry     beta= 0.70
     Davidson diagonalization with overlap
     ethr =  6.92E-05,  avg # of iterations =  1.0

     negative rho (up, down):  4.763E-04 4.761E-04

     total cpu time spent up to now is      373.6 secs

     WARNING: integrated charge=    27.99999313, expected=    28.00000000

     total energy              =    -448.58484417 Ry
     estimated scf accuracy    <       0.03632154 Ry

     total magnetization       =    -0.00 Bohr mag/cell
     absolute magnetization    =     0.00 Bohr mag/cell

     iteration # 20     ecut=   140.00 Ry     beta= 0.70
     Davidson diagonalization with overlap
     ethr =  6.92E-05,  avg # of iterations =  2.5

     negative rho (up, down):  5.205E-04 5.217E-04

     total cpu time spent up to now is      378.5 secs

     WARNING: integrated charge=    28.00000680, expected=    28.00000000

     total energy              =    -448.58747434 Ry
     estimated scf accuracy    <       0.00117130 Ry

     total magnetization       =     0.00 Bohr mag/cell
     absolute magnetization    =     0.00 Bohr mag/cell

     iteration # 21     ecut=   140.00 Ry     beta= 0.70
     Davidson diagonalization with overlap
     ethr =  4.18E-06,  avg # of iterations =  2.9

     negative rho (up, down):  5.062E-04 5.072E-04

     total cpu time spent up to now is      384.5 secs

     WARNING: integrated charge=    28.00000416, expected=    28.00000000

     total energy              =    -448.58714400 Ry
     estimated scf accuracy    <       0.01272905 Ry

     total magnetization       =    -0.00 Bohr mag/cell
     absolute magnetization    =     0.00 Bohr mag/cell

     iteration # 22     ecut=   140.00 Ry     beta= 0.70
     Davidson diagonalization with overlap
     ethr =  4.18E-06,  avg # of iterations =  2.3

     negative rho (up, down):  4.899E-04 4.900E-04

     total cpu time spent up to now is      389.3 secs

     WARNING: integrated charge=    28.00000369, expected=    28.00000000

     total energy              =    -448.58682352 Ry
     estimated scf accuracy    <       0.00410791 Ry

     total magnetization       =     0.00 Bohr mag/cell
     absolute magnetization    =     0.00 Bohr mag/cell

     iteration # 23     ecut=   140.00 Ry     beta= 0.70
     Davidson diagonalization with overlap
     ethr =  4.18E-06,  avg # of iterations =  3.2

     negative rho (up, down):  4.829E-04 4.826E-04

     total cpu time spent up to now is      394.6 secs

     total energy              =    -448.58699353 Ry
     estimated scf accuracy    <       0.00019954 Ry

     total magnetization       =     0.00 Bohr mag/cell
     absolute magnetization    =     0.00 Bohr mag/cell

     iteration # 24     ecut=   140.00 Ry     beta= 0.70
     Davidson diagonalization with overlap
     ethr =  7.13E-07,  avg # of iterations =  3.5

     negative rho (up, down):  4.835E-04 4.833E-04

     total cpu time spent up to now is      399.9 secs

     total energy              =    -448.58703731 Ry
     estimated scf accuracy    <       0.00005123 Ry

     total magnetization       =     0.00 Bohr mag/cell
     absolute magnetization    =     0.00 Bohr mag/cell

     iteration # 25     ecut=   140.00 Ry     beta= 0.70
     Davidson diagonalization with overlap
     ethr =  1.83E-07,  avg # of iterations =  2.2
     Minimization algorithm failed to find Fermi energy: reverting to bisection
     Possible cause: smearing is larger than the electronic band-gap.

     negative rho (up, down):  4.839E-04 4.837E-04

     total cpu time spent up to now is      404.8 secs

     total energy              =    -448.58703911 Ry
     estimated scf accuracy    <       0.00003433 Ry

     total magnetization       =     0.00 Bohr mag/cell
     absolute magnetization    =     0.00 Bohr mag/cell

     iteration # 26     ecut=   140.00 Ry     beta= 0.70
     Davidson diagonalization with overlap
     ethr =  1.23E-07,  avg # of iterations =  1.1

     negative rho (up, down):  4.855E-04 4.852E-04

     total cpu time spent up to now is      409.3 secs

     total energy              =    -448.58703514 Ry
     estimated scf accuracy    <       0.00002497 Ry

     total magnetization       =     0.00 Bohr mag/cell
     absolute magnetization    =     0.00 Bohr mag/cell

     iteration # 27     ecut=   140.00 Ry     beta= 0.70
     Davidson diagonalization with overlap
     ethr =  8.92E-08,  avg # of iterations =  1.7

     negative rho (up, down):  4.854E-04 4.852E-04

     total cpu time spent up to now is      414.0 secs

     total energy              =    -448.58703741 Ry
     estimated scf accuracy    <       0.00000051 Ry

     total magnetization       =     0.00 Bohr mag/cell
     absolute magnetization    =     0.00 Bohr mag/cell

     iteration # 28     ecut=   140.00 Ry     beta= 0.70
     Davidson diagonalization with overlap
     ethr =  1.83E-09,  avg # of iterations =  5.1

     negative rho (up, down):  4.856E-04 4.854E-04

     total cpu time spent up to now is      421.1 secs

     total energy              =    -448.58703786 Ry
     estimated scf accuracy    <       0.00000033 Ry

     total magnetization       =     0.00 Bohr mag/cell
     absolute magnetization    =     0.00 Bohr mag/cell

     iteration # 29     ecut=   140.00 Ry     beta= 0.70
     Davidson diagonalization with overlap
     ethr =  1.18E-09,  avg # of iterations =  2.0

     negative rho (up, down):  4.856E-04 4.854E-04

     total cpu time spent up to now is      426.0 secs

     total energy              =    -448.58703789 Ry
     estimated scf accuracy    <       0.00000002 Ry

     total magnetization       =     0.00 Bohr mag/cell
     absolute magnetization    =     0.00 Bohr mag/cell

     iteration # 30     ecut=   140.00 Ry     beta= 0.70
     Davidson diagonalization with overlap
     ethr =  7.17E-11,  avg # of iterations =  4.4

     negative rho (up, down):  4.855E-04 4.854E-04

     total cpu time spent up to now is      432.2 secs

     total energy              =    -448.58703789 Ry
     estimated scf accuracy    <       0.00000004 Ry

     total magnetization       =     0.00 Bohr mag/cell
     absolute magnetization    =     0.00 Bohr mag/cell

     iteration # 31     ecut=   140.00 Ry     beta= 0.70
     Davidson diagonalization with overlap
     ethr =  7.17E-11,  avg # of iterations =  1.5

     negative rho (up, down):  4.855E-04 4.854E-04

     total cpu time spent up to now is      436.8 secs

     total energy              =    -448.58703789 Ry
     estimated scf accuracy    <          1.0E-09 Ry

     total magnetization       =     0.00 Bohr mag/cell
     absolute magnetization    =     0.00 Bohr mag/cell

     iteration # 32     ecut=   140.00 Ry     beta= 0.70
     Davidson diagonalization with overlap
     ethr =  3.66E-12,  avg # of iterations =  5.2

     negative rho (up, down):  4.855E-04 4.854E-04

     total cpu time spent up to now is      444.3 secs

     total energy              =    -448.58703789 Ry
     estimated scf accuracy    <       0.00000001 Ry

     total magnetization       =     0.00 Bohr mag/cell
     absolute magnetization    =     0.00 Bohr mag/cell

     iteration # 33     ecut=   140.00 Ry     beta= 0.70
     Davidson diagonalization with overlap
     ethr =  3.66E-12,  avg # of iterations =  1.1

     negative rho (up, down):  4.855E-04 4.854E-04

     total cpu time spent up to now is      448.7 secs

     total energy              =    -448.58703789 Ry
     estimated scf accuracy    <       0.00000001 Ry

     total magnetization       =     0.00 Bohr mag/cell
     absolute magnetization    =     0.00 Bohr mag/cell

     iteration # 34     ecut=   140.00 Ry     beta= 0.70
     Davidson diagonalization with overlap
     ethr =  3.66E-12,  avg # of iterations =  1.5

     negative rho (up, down):  4.855E-04 4.854E-04

     total cpu time spent up to now is      453.4 secs

     total energy              =    -448.58703789 Ry
     estimated scf accuracy    <       0.00000001 Ry

     total magnetization       =     0.00 Bohr mag/cell
     absolute magnetization    =     0.00 Bohr mag/cell

     iteration # 35     ecut=   140.00 Ry     beta= 0.70
     Davidson diagonalization with overlap
     ethr =  3.66E-12,  avg # of iterations =  1.7

     negative rho (up, down):  4.855E-04 4.854E-04

     total cpu time spent up to now is      458.1 secs

     total energy              =    -448.58703789 Ry
     estimated scf accuracy    <          6.8E-09 Ry

     total magnetization       =     0.00 Bohr mag/cell
     absolute magnetization    =     0.00 Bohr mag/cell

     iteration # 36     ecut=   140.00 Ry     beta= 0.70
     Davidson diagonalization with overlap
     ethr =  3.66E-12,  avg # of iterations =  3.1

     negative rho (up, down):  4.854E-04 4.855E-04

     total cpu time spent up to now is      463.2 secs

     total energy              =    -448.58703789 Ry
     estimated scf accuracy    <          6.4E-10 Ry

     total magnetization       =     0.00 Bohr mag/cell
     absolute magnetization    =     0.00 Bohr mag/cell

     iteration # 37     ecut=   140.00 Ry     beta= 0.70
     Davidson diagonalization with overlap
     ethr =  2.28E-12,  avg # of iterations =  2.2

     negative rho (up, down):  4.855E-04 4.855E-04

     Magnetic moment per site  (integrated on atomic sphere of radius R)
     atom   1 (R=0.357)  charge= 14.6912  magn= -0.0000
     atom   2 (R=0.357)  charge=  9.9783  magn=  0.0000

     total cpu time spent up to now is      468.1 secs

     End of self-consistent calculation

     Number of k-points >= 100: set verbosity='high' to print the bands.

     the Fermi energy is    17.2497 ev

!    total energy              =    -448.58703789 Ry
     estimated scf accuracy    <          2.9E-11 Ry
     smearing contrib. (-TS)   =       0.00006542 Ry
     internal energy E=F+TS    =    -448.58710331 Ry

     The total energy is F=E-TS. E is the sum of the following terms:
     one-electron contribution =    -153.52737254 Ry
     hartree contribution      =      92.35763135 Ry
     xc contribution           =     -52.85878500 Ry
     ewald contribution        =    -258.40507984 Ry
     one-center paw contrib.   =     -76.15349728 Ry

     total magnetization       =    -0.00 Bohr mag/cell
     absolute magnetization    =     0.00 Bohr mag/cell

     convergence has been achieved in  37 iterations

     negative rho (up, down):  4.855E-04 4.855E-04

     Forces acting on atoms (cartesian axes, Ry/au):

     atom    1 type  2   force =    -0.00090791   -0.00090791   -0.00090791
     atom    2 type  1   force =     0.00090791    0.00090791    0.00090791

     Total force =     0.002224     Total SCF correction =     0.000001


     Computing stress (Cartesian axis) and pressure


     negative rho (up, down):  4.855E-04 4.855E-04
          total   stress  (Ry/bohr**3)                   (kbar)     P=        0.00
   0.00000001  -0.00000007  -0.00000007            0.00       -0.01       -0.01
  -0.00000007   0.00000001  -0.00000007           -0.01        0.00       -0.01
  -0.00000007  -0.00000007   0.00000001           -0.01       -0.01        0.00


     Writing all to output data dir ./outputs/TiFe.save/ :
     XML data file
     init_run     :      5.93s CPU      6.06s WALL (       2 calls)
     electrons    :    442.95s CPU    453.69s WALL (       4 calls)
     update_pot   :      0.29s CPU      0.33s WALL (       2 calls)
     forces       :      1.66s CPU      1.71s WALL (       4 calls)
     stress       :      7.17s CPU      7.37s WALL (       4 calls)

     Called by init_run:
     wfcinit      :      4.39s CPU      4.47s WALL (       2 calls)
     potinit      :      0.41s CPU      0.43s WALL (       2 calls)
     hinit0       :      0.60s CPU      0.61s WALL (       2 calls)

     Called by electrons:
     c_bands      :    360.00s CPU    366.90s WALL (      78 calls)
     sum_band     :     66.13s CPU     68.16s WALL (      78 calls)
     v_of_rho     :      1.94s CPU      2.12s WALL (      80 calls)
     newd         :      6.07s CPU      6.95s WALL (      80 calls)
     PAW_pot      :      9.45s CPU     10.23s WALL (      82 calls)
     mix_rho      :      0.27s CPU      0.29s WALL (      78 calls)

     Called by c_bands:
     init_us_2    :      8.45s CPU      8.67s WALL (   49056 calls)
     cegterg      :    345.14s CPU    351.59s WALL (   22776 calls)

     Called by *egterg:
     cdiaghg      :     27.75s CPU     28.27s WALL (   92306 calls)
     h_psi        :    279.42s CPU    284.77s WALL (   94058 calls)
     s_psi        :      5.77s CPU      5.89s WALL (   94058 calls)
     g_psi        :      1.38s CPU      1.41s WALL (   70698 calls)

     Called by h_psi:
     h_psi:calbec :      9.68s CPU      9.87s WALL (   94058 calls)
     vloc_psi     :    262.83s CPU    267.87s WALL (   94058 calls)
     add_vuspsi   :      5.89s CPU      6.03s WALL (   94058 calls)

     General routines
     calbec       :     14.91s CPU     15.22s WALL (  137274 calls)
     fft          :      1.23s CPU      1.42s WALL (    2158 calls)
     ffts         :      0.16s CPU      0.17s WALL (     316 calls)
     fftw         :    272.40s CPU    277.56s WALL ( 2604168 calls)
     interpolate  :      0.20s CPU      0.23s WALL (     160 calls)

     Parallel routines

     PWSCF        :    458.90s CPU    470.45s WALL


   This run was terminated on:  14:24:33  19Nov2025            

=------------------------------------------------------------------------------=
   JOB DONE.
=------------------------------------------------------------------------------=
