
     Program PWSCF v.7.4 starts on 27Oct2025 at 14:46:24 

     This program is part of the open-source Quantum ESPRESSO suite
     for quantum simulation of materials; please cite
         "P. Giannozzi et al., J. Phys.:Condens. Matter 21 395502 (2009);
         "P. Giannozzi et al., J. Phys.:Condens. Matter 29 465901 (2017);
         "P. Giannozzi et al., J. Chem. Phys. 152 154105 (2020);
          URL http://www.quantum-espresso.org", 
     in publications or presentations arising from this work. More details at
     http://www.quantum-espresso.org/quote

     Parallel version (MPI & OpenMP), running on      16 processor cores
     Number of MPI processes:                16
     Threads/MPI process:                     1

     MPI processes distributed on     1 nodes
     228766 MiB available memory on the printing compute node when the environment starts

     Reading input from TiFe2_ecutwfc_convergence/TiFe2_ecut80.in

     Current dimensions of program PWSCF are:
     Max number of different atomic species (ntypx) = 10
     Max number of k-points (npk) =  40000
     Max angular momentum in pseudopotentials (lmaxx) =  4
     file Fe.pbe-spn-kjpaw_psl.0.2.1.UPF: wavefunction(s)  3D renormalized

     IMPORTANT: XC functional enforced from input :
     Exchange-correlation= PBE
                           (   1   4   3   4   0   0   0)
     Any further DFT definition will be discarded
     Please, verify this is what you really want

     Message from routine setup:
     using ibrav=0 with symmetry is DISCOURAGED, use correct ibrav instead

     R & G space division:  proc/nbgrp/npool/nimage =      16
     Subspace diagonalization in iterative solution of the eigenvalue problem:
     a serial algorithm will be used


     Parallelization info
     --------------------
     sticks:   dense  smooth     PW     G-vecs:    dense   smooth      PW
     Min         144     115     31                 9076     6485     951
     Max         150     116     32                 9077     6490     960
     Sum        2335    1843    511               145217   103795   15327

     Using Slab Decomposition



     bravais-lattice index     =            0
     lattice parameter (alat)  =       9.1568  a.u.
     unit-cell volume          =    1075.5644 (a.u.)^3
     number of atoms/cell      =           12
     number of atomic types    =            2
     number of electrons       =       176.00
     number of Kohn-Sham states=          106
     kinetic-energy cutoff     =      80.0000  Ry
     charge density cutoff     =     400.0000  Ry
     scf convergence threshold =      1.0E-08
     mixing beta               =       0.7000
     number of iterations used =            8  plain     mixing
     Exchange-correlation= PBE
                           (   1   4   3   4   0   0   0)

     celldm(1)=   9.156781  celldm(2)=   0.000000  celldm(3)=   0.000000
     celldm(4)=   0.000000  celldm(5)=   0.000000  celldm(6)=   0.000000

     crystal axes: (cart. coord. in units of alat)
               a(1) = (   1.000000   0.000000   0.000000 )  
               a(2) = (  -0.500000   0.866025   0.000000 )  
               a(3) = (   0.000000   0.000000   1.617623 )  

     reciprocal axes: (cart. coord. in units 2 pi/alat)
               b(1) = (  1.000000  0.577350 -0.000000 )  
               b(2) = (  0.000000  1.154701  0.000000 )  
               b(3) = (  0.000000 -0.000000  0.618191 )  


     PseudoPot. # 1 for Fe read from file:
     ./Fe.pbe-spn-kjpaw_psl.0.2.1.UPF
     MD5 check sum: e86618425769142926afa95317d90200
     Pseudo is Projector augmented-wave + core cor, Zval = 16.0
     Generated using "atomic" code by A. Dal Corso  v.5.0.99 svn rev. 10869
     Shape of augmentation charge: PSQ
     Using radial grid of 1191 points,  6 beta functions with: 
                l(1) =   0
                l(2) =   0
                l(3) =   1
                l(4) =   1
                l(5) =   2
                l(6) =   2
     Q(r) pseudized with 0 coefficients 


     PseudoPot. # 2 for Ti read from file:
     ./Ti_pbe_v1.4.uspp.F.UPF
     MD5 check sum: 88a00a6731bd790ddea75d31a80cb452
     Pseudo is Ultrasoft + core correction, Zval = 12.0
     Generated by new atomic code, or converted to UPF format
     Using radial grid of  851 points,  6 beta functions with: 
                l(1) =   0
                l(2) =   0
                l(3) =   1
                l(4) =   1
                l(5) =   2
                l(6) =   2
     Q(r) pseudized with  6 coefficients,  rinner =    1.000   1.000   1.000
                                                       1.000   1.000

     atomic species   valence    mass     pseudopotential
     Fe               16.00    55.84500     Fe( 1.00)
     Ti               12.00    47.86700     Ti( 1.00)

     24 Sym. Ops., with inversion, found (12 have fractional translation)



   Cartesian axes

     site n.     atom                  positions (alat units)
         1        Fe     tau(   1) = (   0.7465670   0.1463196   0.4044057  )
         2        Fe     tau(   2) = (  -0.2465670   0.7197058   1.2132171  )
         3        Fe     tau(   3) = (  -0.0000000   0.2926392   1.2132171  )
         4        Fe     tau(   4) = (   0.2534330   0.1463196   0.4044057  )
         5        Fe     tau(   5) = (   0.5000000   0.5733862   0.4044057  )
         6        Fe     tau(   6) = (   0.2465670   0.7197058   1.2132171  )
         7        Fe     tau(   7) = (   0.0000000   0.0000000   0.0000000  )
         8        Fe     tau(   8) = (   0.0000000   0.0000000   0.8088114  )
         9        Ti     tau(   9) = (   0.5000000   0.2886751   1.5200090  )
        10        Ti     tau(  10) = (  -0.0000000   0.5773503   0.7111976  )
        11        Ti     tau(  11) = (  -0.0000000   0.5773503   0.0976138  )
        12        Ti     tau(  12) = (   0.5000000   0.2886751   0.9064252  )

     number of k points=    28  Marzari-Vanderbilt smearing, width (Ry)=  0.0050
                       cart. coord. in units 2pi/alat
        k(    1) = (   0.0000000   0.0000000   0.0000000), wk =   0.0092593
        k(    2) = (   0.0000000   0.0000000   0.1030318), wk =   0.0185185
        k(    3) = (   0.0000000   0.0000000   0.2060637), wk =   0.0185185
        k(    4) = (   0.0000000   0.0000000  -0.3090955), wk =   0.0092593
        k(    5) = (   0.0000000   0.1924501   0.0000000), wk =   0.0555556
        k(    6) = (   0.0000000   0.1924501   0.1030318), wk =   0.1111111
        k(    7) = (   0.0000000   0.1924501   0.2060637), wk =   0.1111111
        k(    8) = (   0.0000000   0.1924501  -0.3090955), wk =   0.0555556
        k(    9) = (   0.0000000   0.3849002   0.0000000), wk =   0.0555556
        k(   10) = (   0.0000000   0.3849002   0.1030318), wk =   0.1111111
        k(   11) = (   0.0000000   0.3849002   0.2060637), wk =   0.1111111
        k(   12) = (   0.0000000   0.3849002  -0.3090955), wk =   0.0555556
        k(   13) = (   0.0000000  -0.5773503   0.0000000), wk =   0.0277778
        k(   14) = (   0.0000000  -0.5773503   0.1030318), wk =   0.0555556
        k(   15) = (   0.0000000  -0.5773503   0.2060637), wk =   0.0555556
        k(   16) = (   0.0000000  -0.5773503  -0.3090955), wk =   0.0277778
        k(   17) = (   0.1666667   0.2886751   0.0000000), wk =   0.0555556
        k(   18) = (   0.1666667   0.2886751   0.1030318), wk =   0.1111111
        k(   19) = (   0.1666667   0.2886751   0.2060637), wk =   0.1111111
        k(   20) = (   0.1666667   0.2886751  -0.3090955), wk =   0.0555556
        k(   21) = (   0.1666667   0.4811252   0.0000000), wk =   0.1111111
        k(   22) = (   0.1666667   0.4811252   0.1030318), wk =   0.2222222
        k(   23) = (   0.1666667   0.4811252   0.2060637), wk =   0.2222222
        k(   24) = (   0.1666667   0.4811252  -0.3090955), wk =   0.1111111
        k(   25) = (   0.3333333   0.5773503   0.0000000), wk =   0.0185185
        k(   26) = (   0.3333333   0.5773503   0.1030318), wk =   0.0370370
        k(   27) = (   0.3333333   0.5773503   0.2060637), wk =   0.0370370
        k(   28) = (   0.3333333   0.5773503  -0.3090955), wk =   0.0185185

     Dense  grid:   145217 G-vectors     FFT dimensions: (  60,  60,  96)

     Smooth grid:   103795 G-vectors     FFT dimensions: (  54,  54,  90)

     Estimated max dynamical RAM per process >      78.39 MB

     Estimated total dynamical RAM >       1.22 GB

     Check: negative core charge=   -0.000035

     Initial potential from superposition of free atoms

     starting charge     171.9963, renormalised to     176.0000

     negative rho (up, down):  3.704E-03 0.000E+00
     Starting wfcs are  144 randomized atomic wfcs
     Checking if some PAW data can be deallocated... 

     total cpu time spent up to now is        4.0 secs

     per-process dynamical memory:   163.7 Mb

     Self-consistent Calculation

     iteration #  1     ecut=    80.00 Ry     beta= 0.70
     Davidson diagonalization with overlap
     ethr =  1.00E-02,  avg # of iterations =  2.0

     negative rho (up, down):  1.732E-03 0.000E+00

     total cpu time spent up to now is       10.6 secs

     total energy              =   -3017.01983741 Ry
     estimated scf accuracy    <     116.55418651 Ry

     iteration #  2     ecut=    80.00 Ry     beta= 0.70
     Davidson diagonalization with overlap
     ethr =  1.00E-02,  avg # of iterations =  6.7

     total cpu time spent up to now is       24.7 secs

     total energy              =   -3075.95922507 Ry
     estimated scf accuracy    <     699.70525590 Ry

     iteration #  3     ecut=    80.00 Ry     beta= 0.70
     Davidson diagonalization with overlap
     ethr =  1.00E-02,  avg # of iterations =  5.2

     total cpu time spent up to now is       35.5 secs

     total energy              =   -3120.91686770 Ry
     estimated scf accuracy    <      91.63843238 Ry

     iteration #  4     ecut=    80.00 Ry     beta= 0.70
     Davidson diagonalization with overlap
     ethr =  1.00E-02,  avg # of iterations =  1.3

     negative rho (up, down):  7.759E-06 0.000E+00

     total cpu time spent up to now is       40.9 secs

     total energy              =   -3116.48193514 Ry
     estimated scf accuracy    <      54.46293590 Ry

     iteration #  5     ecut=    80.00 Ry     beta= 0.70
     Davidson diagonalization with overlap
     ethr =  1.00E-02,  avg # of iterations =  1.7

     negative rho (up, down):  2.846E-04 0.000E+00

     total cpu time spent up to now is       46.5 secs

     total energy              =   -3115.17334665 Ry
     estimated scf accuracy    <      41.80315202 Ry

     iteration #  6     ecut=    80.00 Ry     beta= 0.70
     Davidson diagonalization with overlap
     ethr =  1.00E-02,  avg # of iterations =  1.0

     negative rho (up, down):  7.815E-04 0.000E+00

     total cpu time spent up to now is       51.8 secs

     total energy              =   -3113.66451324 Ry
     estimated scf accuracy    <      26.02639749 Ry

     iteration #  7     ecut=    80.00 Ry     beta= 0.70
     Davidson diagonalization with overlap
     ethr =  1.00E-02,  avg # of iterations =  1.0

     negative rho (up, down):  1.476E-03 0.000E+00

     total cpu time spent up to now is       57.0 secs

     total energy              =   -3111.33313023 Ry
     estimated scf accuracy    <      18.36912142 Ry

     iteration #  8     ecut=    80.00 Ry     beta= 0.70
     Davidson diagonalization with overlap
     ethr =  1.00E-02,  avg # of iterations =  1.0

     negative rho (up, down):  1.694E-03 0.000E+00

     total cpu time spent up to now is       62.3 secs

     total energy              =   -3111.47637408 Ry
     estimated scf accuracy    <       6.17873139 Ry

     iteration #  9     ecut=    80.00 Ry     beta= 0.70
     Davidson diagonalization with overlap
     ethr =  3.51E-03,  avg # of iterations =  1.8

     negative rho (up, down):  2.204E-03 0.000E+00

     total cpu time spent up to now is       68.0 secs

     total energy              =   -3111.22764927 Ry
     estimated scf accuracy    <       4.40457572 Ry

     iteration # 10     ecut=    80.00 Ry     beta= 0.70
     Davidson diagonalization with overlap
     ethr =  2.50E-03,  avg # of iterations =  2.1

     negative rho (up, down):  3.436E-03 0.000E+00

     total cpu time spent up to now is       73.9 secs

     total energy              =   -3110.90727831 Ry
     estimated scf accuracy    <       1.50976190 Ry

     iteration # 11     ecut=    80.00 Ry     beta= 0.70
     Davidson diagonalization with overlap
     ethr =  8.58E-04,  avg # of iterations =  5.3

     negative rho (up, down):  2.944E-03 0.000E+00

     total cpu time spent up to now is       83.5 secs

     total energy              =   -3111.27801357 Ry
     estimated scf accuracy    <       7.20076821 Ry

     iteration # 12     ecut=    80.00 Ry     beta= 0.70
     Davidson diagonalization with overlap
     ethr =  8.58E-04,  avg # of iterations =  1.2

     negative rho (up, down):  2.061E-03 0.000E+00

     total cpu time spent up to now is       88.9 secs

     total energy              =   -3111.08537792 Ry
     estimated scf accuracy    <       1.51149344 Ry

     iteration # 13     ecut=    80.00 Ry     beta= 0.70
     Davidson diagonalization with overlap
     ethr =  8.58E-04,  avg # of iterations =  3.2

     negative rho (up, down):  2.429E-03 0.000E+00

     total cpu time spent up to now is       95.9 secs

     total energy              =   -3111.38626333 Ry
     estimated scf accuracy    <       1.42087934 Ry

     iteration # 14     ecut=    80.00 Ry     beta= 0.70
     Davidson diagonalization with overlap
     ethr =  8.07E-04,  avg # of iterations =  1.0

     negative rho (up, down):  2.646E-03 0.000E+00

     total cpu time spent up to now is      101.1 secs

     total energy              =   -3111.32439940 Ry
     estimated scf accuracy    <       0.84752630 Ry

     iteration # 15     ecut=    80.00 Ry     beta= 0.70
     Davidson diagonalization with overlap
     ethr =  4.82E-04,  avg # of iterations =  1.2

     negative rho (up, down):  2.676E-03 0.000E+00

     total cpu time spent up to now is      106.5 secs

     total energy              =   -3111.34084152 Ry
     estimated scf accuracy    <       0.12625787 Ry

     iteration # 16     ecut=    80.00 Ry     beta= 0.70
     Davidson diagonalization with overlap
     ethr =  7.17E-05,  avg # of iterations =  2.4

     negative rho (up, down):  2.698E-03 0.000E+00

     total cpu time spent up to now is      112.3 secs

     total energy              =   -3111.34102818 Ry
     estimated scf accuracy    <       0.07362281 Ry

     iteration # 17     ecut=    80.00 Ry     beta= 0.70
     Davidson diagonalization with overlap
     ethr =  4.18E-05,  avg # of iterations =  1.8

     negative rho (up, down):  2.752E-03 0.000E+00

     total cpu time spent up to now is      117.9 secs

     total energy              =   -3111.33688504 Ry
     estimated scf accuracy    <       0.06691649 Ry

     iteration # 18     ecut=    80.00 Ry     beta= 0.70
     Davidson diagonalization with overlap
     ethr =  3.80E-05,  avg # of iterations =  2.1

     negative rho (up, down):  2.801E-03 0.000E+00

     total cpu time spent up to now is      123.6 secs

     total energy              =   -3111.33611090 Ry
     estimated scf accuracy    <       0.01823555 Ry

     iteration # 19     ecut=    80.00 Ry     beta= 0.70
     Davidson diagonalization with overlap
     c_bands:  1 eigenvalues not converged
     ethr =  1.04E-05,  avg # of iterations =  6.5

     negative rho (up, down):  2.801E-03 0.000E+00

     total cpu time spent up to now is      131.4 secs

     total energy              =   -3111.33760445 Ry
     estimated scf accuracy    <       0.00001307 Ry

     iteration # 20     ecut=    80.00 Ry     beta= 0.70
     Davidson diagonalization with overlap
     c_bands:  1 eigenvalues not converged
     ethr =  7.43E-09,  avg # of iterations = 12.1

     negative rho (up, down):  2.803E-03 0.000E+00

     total cpu time spent up to now is      155.5 secs

     total energy              =   -3111.33786914 Ry
     estimated scf accuracy    <       0.00005723 Ry

     iteration # 21     ecut=    80.00 Ry     beta= 0.70
     Davidson diagonalization with overlap
     ethr =  7.43E-09,  avg # of iterations =  1.9

     negative rho (up, down):  2.806E-03 0.000E+00

     total cpu time spent up to now is      161.2 secs

     total energy              =   -3111.33787081 Ry
     estimated scf accuracy    <       0.00002327 Ry

     iteration # 22     ecut=    80.00 Ry     beta= 0.70
     Davidson diagonalization with overlap
     ethr =  7.43E-09,  avg # of iterations =  1.2

     negative rho (up, down):  2.807E-03 0.000E+00

     total cpu time spent up to now is      166.6 secs

     total energy              =   -3111.33787289 Ry
     estimated scf accuracy    <       0.00002987 Ry

     iteration # 23     ecut=    80.00 Ry     beta= 0.70
     Davidson diagonalization with overlap
     ethr =  7.43E-09,  avg # of iterations =  1.0

     negative rho (up, down):  2.805E-03 0.000E+00

     total cpu time spent up to now is      171.8 secs

     total energy              =   -3111.33786858 Ry
     estimated scf accuracy    <       0.00005162 Ry

     iteration # 24     ecut=    80.00 Ry     beta= 0.70
     Davidson diagonalization with overlap
     ethr =  7.43E-09,  avg # of iterations =  1.4

     negative rho (up, down):  2.805E-03 0.000E+00

     total cpu time spent up to now is      177.3 secs

     total energy              =   -3111.33786927 Ry
     estimated scf accuracy    <       0.00000496 Ry

     iteration # 25     ecut=    80.00 Ry     beta= 0.70
     Davidson diagonalization with overlap
     ethr =  2.82E-09,  avg # of iterations =  3.0

     negative rho (up, down):  2.805E-03 0.000E+00

     total cpu time spent up to now is      183.9 secs

     total energy              =   -3111.33786990 Ry
     estimated scf accuracy    <       0.00000041 Ry

     iteration # 26     ecut=    80.00 Ry     beta= 0.70
     Davidson diagonalization with overlap
     ethr =  2.33E-10,  avg # of iterations =  4.9

     negative rho (up, down):  2.805E-03 0.000E+00

     total cpu time spent up to now is      191.8 secs

     total energy              =   -3111.33786991 Ry
     estimated scf accuracy    <       0.00000063 Ry

     iteration # 27     ecut=    80.00 Ry     beta= 0.70
     Davidson diagonalization with overlap
     ethr =  2.33E-10,  avg # of iterations =  1.4

     negative rho (up, down):  2.805E-03 0.000E+00

     total cpu time spent up to now is      197.3 secs

     total energy              =   -3111.33786993 Ry
     estimated scf accuracy    <       0.00000005 Ry

     iteration # 28     ecut=    80.00 Ry     beta= 0.70
     Davidson diagonalization with overlap
     ethr =  2.64E-11,  avg # of iterations =  4.6

     negative rho (up, down):  2.805E-03 0.000E+00

     total cpu time spent up to now is      205.3 secs

     End of self-consistent calculation

          k = 0.0000 0.0000 0.0000 ( 12973 PWs)   bands (ev):

   -70.7850 -70.7623 -70.7265 -70.7037 -70.6993 -70.6993 -70.6993 -70.6993
   -40.8832 -40.8690 -40.8337 -40.8184 -37.1885 -37.1185 -37.0096 -36.8908
   -36.8908 -36.8706 -36.8706 -36.8569 -36.8569 -36.7977 -36.7861 -36.7454
   -36.7454 -36.7424 -36.7424 -36.6445 -36.6421 -36.6421 -36.6408 -36.6408
   -36.6324 -36.6324 -36.6192 -36.6192 -17.1751 -17.1751 -17.1611 -17.1611
   -17.1598 -17.1581 -17.0192 -17.0162 -17.0018 -17.0018 -16.9872 -16.9872
     8.6183  10.6490  11.4227  12.0190  12.5092  12.6095  12.7690  12.7690
    12.9895  12.9895  13.1998  13.2941  13.3858  13.3858  13.8275  13.8275
    13.9661  13.9661  14.2079  14.2946  14.2946  14.3198  14.3198  14.7771
    14.7771  14.9100  15.3904  15.3904  15.5097  15.5097  15.8283  15.9123
    15.9123  15.9149  15.9149  16.0633  16.0642  16.0642  16.0719  16.1332
    16.1603  16.1603  16.2320  16.2774  16.2774  16.7299  16.7299  16.7476
    16.9887  16.9887  17.2878  17.2878  17.4914  17.4914  17.5145  17.5148
    17.7866  17.7866

          k = 0.0000 0.0000 0.1030 ( 12996 PWs)   bands (ev):

   -70.7839 -70.7646 -70.7241 -70.7048 -70.6993 -70.6993 -70.6993 -70.6993
   -40.8825 -40.8704 -40.8323 -40.8192 -37.1855 -37.1273 -36.9964 -36.8903
   -36.8903 -36.8754 -36.8754 -36.8492 -36.8492 -36.8362 -36.7690 -36.7690
   -36.7507 -36.7193 -36.7193 -36.6491 -36.6491 -36.6490 -36.6370 -36.6370
   -36.6325 -36.6325 -36.6192 -36.6192 -17.1742 -17.1742 -17.1621 -17.1621
   -17.1594 -17.1580 -17.0193 -17.0166 -17.0007 -17.0007 -16.9881 -16.9881
     8.6951  10.2989  11.7138  12.0196  12.4083  12.7822  12.7822  12.7995
    12.9717  12.9717  13.0478  13.3957  13.4124  13.4124  13.8045  13.8045
    13.9487  13.9487  14.1836  14.1836  14.2749  14.4638  14.4638  14.8329
    14.8329  14.9446  15.3167  15.3167  15.4212  15.4212  15.7049  15.8499
    15.9287  15.9287  16.0207  16.0207  16.0559  16.0559  16.0759  16.1290
    16.1649  16.1649  16.2171  16.2171  16.3686  16.7982  16.7982  16.9646
    16.9792  16.9792  17.2799  17.2799  17.4938  17.4938  17.5145  17.5147
    17.7701  17.7701

          k = 0.0000 0.0000 0.2061 ( 12948 PWs)   bands (ev):

   -70.7807 -70.7699 -70.7188 -70.7080 -70.6993 -70.6993 -70.6993 -70.6993
   -40.8804 -40.8736 -40.8289 -40.8215 -37.1766 -37.1450 -36.9649 -36.8886
   -36.8886 -36.8814 -36.8814 -36.8810 -36.8339 -36.8339 -36.7930 -36.7930
   -36.7147 -36.6965 -36.6965 -36.6627 -36.6607 -36.6607 -36.6345 -36.6345
   -36.6326 -36.6326 -36.6192 -36.6191 -17.1718 -17.1718 -17.1648 -17.1648
   -17.1586 -17.1578 -17.0192 -17.0177 -16.9979 -16.9979 -16.9906 -16.9906
     8.9217   9.7632  11.9828  12.0214  12.4589  12.8191  12.8191  12.8591
    12.9270  12.9270  13.0616  13.4127  13.4854  13.4854  13.7125  13.7125
    13.9591  13.9591  14.0867  14.0867  14.5006  14.6548  14.6548  14.9419
    14.9419  15.0299  15.1535  15.1535  15.2789  15.2789  15.4671  15.4920
    15.9609  15.9609  16.0261  16.0261  16.0818  16.0818  16.0871  16.1177
    16.1203  16.1203  16.3276  16.3276  16.6116  16.8012  16.8012  17.0145
    17.0145  17.2420  17.2420  17.3975  17.5145  17.5444  17.5444  17.5629
    17.7192  17.7192

          k = 0.0000 0.0000-0.3091 ( 12954 PWs)   bands (ev):

   -70.7758 -70.7758 -70.7129 -70.7129 -70.6993 -70.6993 -70.6993 -70.6993
   -40.8772 -40.8772 -40.8250 -40.8250 -37.1628 -37.1628 -36.9248 -36.9248
   -36.8858 -36.8858 -36.8858 -36.8858 -36.8149 -36.8149 -36.8149 -36.8149
   -36.6850 -36.6850 -36.6766 -36.6766 -36.6766 -36.6766 -36.6331 -36.6331
   -36.6331 -36.6331 -36.6192 -36.6192 -17.1684 -17.1684 -17.1684 -17.1684
   -17.1580 -17.1580 -17.0187 -17.0187 -16.9942 -16.9942 -16.9942 -16.9942
     9.2859   9.2859  12.0230  12.0230  12.6656  12.6656  12.8713  12.8713
    12.8713  12.8713  13.2883  13.2883  13.5917  13.5917  13.5917  13.5917
    14.0106  14.0106  14.0106  14.0106  14.8643  14.8643  14.8643  14.8643
    14.8734  14.8734  15.1492  15.1492  15.1492  15.1492  15.3176  15.3176
    16.0014  16.0014  16.0014  16.0014  16.0682  16.0682  16.0682  16.0682
    16.1023  16.1023  16.5887  16.5887  16.5887  16.5887  16.9853  16.9853
    17.1493  17.1493  17.1493  17.1493  17.5146  17.5146  17.6367  17.6367
    17.6367  17.6367

          k = 0.0000 0.1925 0.0000 ( 12955 PWs)   bands (ev):

   -70.7814 -70.7587 -70.7265 -70.7120 -70.7029 -70.6993 -70.6993 -70.6945
   -40.8805 -40.8661 -40.8368 -40.8214 -37.1668 -37.0973 -37.0071 -36.8896
   -36.8771 -36.8761 -36.8608 -36.8570 -36.8554 -36.7910 -36.7862 -36.7527
   -36.7455 -36.7433 -36.7426 -36.6586 -36.6532 -36.6496 -36.6452 -36.6421
   -36.6406 -36.6393 -36.6260 -36.6247 -17.1895 -17.1795 -17.1650 -17.1619
   -17.1568 -17.1372 -17.0355 -17.0120 -17.0071 -16.9976 -16.9830 -16.9795
     8.8844  10.8520  11.6009  12.1307  12.5492  12.6043  12.7147  12.8111
    12.9009  13.1537  13.1570  13.3966  13.4401  13.4682  13.7824  13.8807
    13.9666  14.0696  14.2449  14.2833  14.2954  14.3210  14.3669  14.6310
    14.6999  14.7115  15.0248  15.2186  15.2249  15.2798  15.4971  15.5686
    15.7640  15.8574  15.8805  15.9587  16.0037  16.0690  16.1149  16.1938
    16.2182  16.3022  16.3280  16.3568  16.4914  16.6276  16.8024  16.8956
    16.9061  17.0137  17.2899  17.3013  17.3352  17.5245  17.5435  17.5484
    17.5778  17.9180

          k = 0.0000 0.1925 0.1030 ( 12974 PWs)   bands (ev):

   -70.7803 -70.7611 -70.7244 -70.7124 -70.7026 -70.6993 -70.6993 -70.6953
   -40.8798 -40.8675 -40.8353 -40.8221 -37.1640 -37.1065 -36.9937 -36.8893
   -36.8820 -36.8767 -36.8642 -36.8529 -36.8451 -36.8285 -36.7733 -36.7684
   -36.7502 -36.7239 -36.7200 -36.6602 -36.6544 -36.6535 -36.6467 -36.6420
   -36.6416 -36.6406 -36.6258 -36.6247 -17.1880 -17.1786 -17.1661 -17.1654
   -17.1539 -17.1381 -17.0345 -17.0161 -17.0027 -16.9966 -16.9839 -16.9808
     8.9593  10.5162  11.8768  12.1317  12.4545  12.6575  12.7816  12.8302
    12.9367  13.1229  13.1316  13.3679  13.4711  13.5013  13.7770  13.8659
    13.9375  14.0358  14.1368  14.2182  14.3256  14.4439  14.5022  14.6915
    14.7341  14.7606  15.0260  15.1663  15.1837  15.2547  15.5079  15.5560
    15.6805  15.8075  15.8583  15.9279  16.0074  16.0378  16.1199  16.1700
    16.2040  16.2917  16.3058  16.3999  16.4991  16.6854  16.7885  16.9078
    16.9606  17.0954  17.2838  17.3228  17.3350  17.4699  17.5459  17.5723
    17.6251  17.8938

          k = 0.0000 0.1925 0.2061 ( 12993 PWs)   bands (ev):

   -70.7771 -70.7664 -70.7201 -70.7136 -70.7015 -70.6993 -70.6993 -70.6972
   -40.8777 -40.8708 -40.8318 -40.8244 -37.1556 -37.1246 -36.9633 -36.8977
   -36.8854 -36.8756 -36.8697 -36.8632 -36.8376 -36.8306 -36.7968 -36.7916
   -36.7174 -36.7037 -36.6978 -36.6659 -36.6635 -36.6615 -36.6487 -36.6466
   -36.6410 -36.6406 -36.6254 -36.6249 -17.1838 -17.1761 -17.1713 -17.1689
   -17.1493 -17.1407 -17.0316 -17.0218 -16.9963 -16.9938 -16.9865 -16.9845
     9.1803   9.9983  12.1191  12.1393  12.4832  12.6845  12.8042  12.8840
    13.0266  13.0495  13.1140  13.3679  13.5194  13.5514  13.7016  13.7868
    13.9482  14.0179  14.0592  14.1259  14.4507  14.6553  14.6750  14.7871
    14.8354  14.8409  14.9918  15.0784  15.0965  15.1744  15.3507  15.4364
    15.6719  15.8069  15.8569  15.8940  15.9202  16.0237  16.0561  16.0965
    16.1997  16.2949  16.3286  16.5054  16.5582  16.6878  16.7355  16.8218
    17.0751  17.2457  17.2655  17.3442  17.3934  17.5128  17.5393  17.6170
    17.6233  17.8243

          k = 0.0000 0.1925-0.3091 ( 12982 PWs)   bands (ev):

   -70.7722 -70.7722 -70.7161 -70.7161 -70.6996 -70.6996 -70.6993 -70.6993
   -40.8746 -40.8746 -40.8278 -40.8278 -37.1420 -37.1420 -36.9274 -36.9274
   -36.8798 -36.8798 -36.8733 -36.8733 -36.8186 -36.8186 -36.8126 -36.8126
   -36.6963 -36.6963 -36.6785 -36.6785 -36.6712 -36.6712 -36.6486 -36.6486
   -36.6407 -36.6407 -36.6251 -36.6251 -17.1779 -17.1779 -17.1725 -17.1725
   -17.1447 -17.1447 -17.0272 -17.0272 -16.9900 -16.9900 -16.9900 -16.9900
     9.5348   9.5348  12.1426  12.1426  12.6267  12.6267  12.8931  12.8931
    12.9625  12.9625  13.2870  13.2870  13.5873  13.5873  13.6640  13.6640
    14.0013  14.0013  14.0568  14.0568  14.6734  14.6734  14.8197  14.8197
    14.8852  14.8852  14.9560  14.9560  15.0958  15.0958  15.2757  15.2757
    15.7862  15.7862  15.8460  15.8460  15.9253  15.9253  16.0548  16.0548
    16.2485  16.2485  16.4881  16.4881  16.6501  16.6501  16.6868  16.6868
    17.1774  17.1774  17.3496  17.3496  17.4720  17.4720  17.5385  17.5385
    17.7230  17.7230

          k = 0.0000 0.3849 0.0000 ( 12992 PWs)   bands (ev):

   -70.7727 -70.7495 -70.7265 -70.7242 -70.7122 -70.6993 -70.6993 -70.6911
   -40.8733 -40.8585 -40.8446 -40.8290 -37.1148 -37.0462 -37.0019 -36.9051
   -36.8746 -36.8671 -36.8571 -36.8429 -36.8149 -36.7863 -36.7817 -36.7630
   -36.7468 -36.7454 -36.7436 -36.7143 -36.6865 -36.6858 -36.6723 -36.6521
   -36.6421 -36.6308 -36.6304 -36.6267 -17.1983 -17.1878 -17.1724 -17.1709
   -17.1468 -17.1094 -17.0610 -17.0188 -17.0026 -16.9899 -16.9751 -16.9736
     9.6331  11.3564  12.0200  12.0479  12.4034  12.5949  12.6510  12.9364
    13.0026  13.0739  13.5558  13.5704  13.5910  13.6373  13.7329  13.9217
    14.0026  14.1422  14.2450  14.2786  14.3265  14.3689  14.4113  14.4433
    14.4941  14.5411  14.5457  14.7698  14.7849  14.8848  14.9711  15.0747
    15.0981  15.3995  15.7133  15.9946  16.0849  16.1408  16.1491  16.1941
    16.2038  16.3326  16.4117  16.6274  16.6409  16.7406  16.7457  16.8450
    16.8554  17.0224  17.0268  17.3386  17.3934  17.6190  17.6759  17.6922
    17.7365  18.2606

          k = 0.0000 0.3849 0.1030 ( 12987 PWs)   bands (ev):

   -70.7716 -70.7520 -70.7259 -70.7242 -70.7103 -70.6993 -70.6993 -70.6922
   -40.8727 -40.8604 -40.8426 -40.8297 -37.1123 -37.0579 -36.9874 -36.9080
   -36.8771 -36.8591 -36.8556 -36.8434 -36.8138 -36.8133 -36.7830 -36.7652
   -36.7539 -36.7351 -36.7241 -36.7112 -36.6870 -36.6825 -36.6715 -36.6553
   -36.6452 -36.6343 -36.6295 -36.6268 -17.1964 -17.1869 -17.1735 -17.1724
   -17.1454 -17.1135 -17.0570 -17.0217 -16.9997 -16.9888 -16.9760 -16.9751
     9.7018  11.0884  11.9796  12.3222  12.3569  12.6119  12.6795  12.9395
    12.9656  13.1414  13.4636  13.4890  13.6572  13.7148  13.7400  13.9081
    13.9912  14.0985  14.2075  14.2739  14.2974  14.3031  14.3896  14.4846
    14.5477  14.5950  14.6574  14.7719  14.7963  14.9436  14.9715  15.0527
    15.1206  15.4184  15.7132  15.8940  16.0201  16.0606  16.1021  16.1556
    16.2139  16.3777  16.3915  16.6343  16.6488  16.7111  16.7312  16.8469
    16.8790  17.0680  17.1731  17.2894  17.3715  17.4879  17.6484  17.7188
    17.9669  18.1936

          k = 0.0000 0.3849 0.2061 ( 12992 PWs)   bands (ev):

   -70.7684 -70.7575 -70.7250 -70.7243 -70.7056 -70.6993 -70.6993 -70.6953
   -40.8708 -40.8641 -40.8387 -40.8317 -37.1049 -37.0765 -36.9612 -36.9177
   -36.8749 -36.8521 -36.8464 -36.8451 -36.8405 -36.8082 -36.8044 -36.7838
   -36.7378 -36.7282 -36.7066 -36.6975 -36.6892 -36.6725 -36.6684 -36.6644
   -36.6529 -36.6441 -36.6283 -36.6270 -17.1913 -17.1842 -17.1771 -17.1765
   -17.1407 -17.1227 -17.0479 -17.0287 -16.9933 -16.9860 -16.9796 -16.9786
     9.9037  10.6397  12.0324  12.2469  12.5912  12.6561  12.7451  12.8918
    13.0493  13.1968  13.3235  13.3708  13.7423  13.7519  13.8044  13.8943
    13.9407  14.0406  14.1784  14.1929  14.2409  14.3209  14.4504  14.5271
    14.5806  14.6205  14.7197  14.8452  14.8540  14.9663  14.9969  15.0496
    15.2567  15.5001  15.6961  15.7644  15.8562  15.9319  15.9507  16.0065
    16.2572  16.3517  16.4411  16.6249  16.6827  16.7012  16.7097  16.8479
    16.9471  17.1321  17.1698  17.3079  17.3802  17.5174  17.6423  17.8157
    17.9865  18.0881

          k = 0.0000 0.3849-0.3091 ( 12974 PWs)   bands (ev):

   -70.7634 -70.7634 -70.7246 -70.7246 -70.7001 -70.7001 -70.6993 -70.6993
   -40.8679 -40.8679 -40.8348 -40.8348 -37.0928 -37.0928 -36.9358 -36.9358
   -36.8643 -36.8643 -36.8481 -36.8481 -36.8252 -36.8252 -36.7985 -36.7985
   -36.7299 -36.7299 -36.6949 -36.6949 -36.6792 -36.6792 -36.6618 -36.6618
   -36.6580 -36.6580 -36.6275 -36.6275 -17.1842 -17.1842 -17.1804 -17.1804
   -17.1327 -17.1327 -17.0378 -17.0378 -16.9861 -16.9861 -16.9822 -16.9822
    10.2253  10.2253  12.1279  12.1279  12.6764  12.6764  12.8351  12.8351
    13.1755  13.1755  13.2657  13.2657  13.7747  13.7747  13.8437  13.8437
    13.9794  13.9794  14.1943  14.1943  14.2496  14.2496  14.5091  14.5091
    14.6022  14.6022  14.7881  14.7881  14.9535  14.9535  15.0271  15.0271
    15.5128  15.5128  15.6595  15.6595  15.7962  15.7962  15.8966  15.8966
    16.3158  16.3158  16.5427  16.5427  16.6598  16.6598  16.7977  16.7977
    17.0507  17.0507  17.2134  17.2134  17.5386  17.5386  17.7516  17.7516
    17.9566  17.9567

          k = 0.0000-0.5774 0.0000 ( 12984 PWs)   bands (ev):

   -70.7667 -70.7424 -70.7313 -70.7265 -70.7194 -70.6993 -70.6993 -70.6900
   -40.8675 -40.8524 -40.8507 -40.8351 -37.0808 -37.0102 -36.9991 -36.9312
   -36.8697 -36.8612 -36.8572 -36.8186 -36.7863 -36.7818 -36.7766 -36.7630
   -36.7617 -36.7454 -36.7454 -36.7440 -36.7241 -36.7000 -36.6948 -36.6560
   -36.6421 -36.6310 -36.6270 -36.6268 -17.1994 -17.1917 -17.1766 -17.1759
   -17.1403 -17.0965 -17.0737 -17.0258 -16.9970 -16.9863 -16.9730 -16.9713
    10.4827  11.0629  11.9987  12.1847  12.3537  12.6470  12.8054  12.8786
    13.0163  13.1967  13.6212  13.6456  13.7048  13.9002  13.9584  13.9651
    13.9851  14.0217  14.1167  14.2847  14.3327  14.3888  14.3923  14.4051
    14.4447  14.4821  14.5002  14.5413  14.5441  14.5592  14.6855  14.7423
    14.7736  15.0595  15.7522  16.0524  16.0684  16.1197  16.1488  16.2209
    16.2497  16.2918  16.3050  16.5641  16.6440  16.8299  16.9064  16.9584
    17.0320  17.0597  17.1285  17.1501  17.4129  17.5385  17.5626  17.6733
    17.8531  18.2046

          k = 0.0000-0.5774 0.1030 ( 12974 PWs)   bands (ev):

   -70.7656 -70.7448 -70.7313 -70.7287 -70.7147 -70.6993 -70.6993 -70.6912
   -40.8670 -40.8559 -40.8472 -40.8357 -37.0786 -37.0271 -36.9808 -36.9322
   -36.8708 -36.8548 -36.8547 -36.8213 -36.8042 -36.7885 -36.7762 -36.7628
   -36.7617 -36.7571 -36.7350 -36.7285 -36.7242 -36.6923 -36.6907 -36.6592
   -36.6456 -36.6306 -36.6300 -36.6270 -17.1975 -17.1907 -17.1771 -17.1770
   -17.1400 -17.1047 -17.0657 -17.0271 -16.9956 -16.9852 -16.9746 -16.9723
    10.5391  11.1049  11.7549  12.0852  12.5546  12.6622  12.7927  12.8783
    13.0513  13.2032  13.5851  13.6422  13.6979  13.9356  13.9558  13.9781
    14.0040  14.0041  14.0831  14.2113  14.2864  14.3662  14.3998  14.4135
    14.4253  14.4432  14.4915  14.5186  14.6503  14.6703  14.6824  14.7604
    14.8801  15.1275  15.7529  15.9758  16.0021  16.0920  16.1149  16.1397
    16.2074  16.2106  16.4867  16.6370  16.6874  16.7125  16.8029  16.8629
    16.9919  17.1631  17.1950  17.2789  17.3390  17.5005  17.7096  17.7421
    17.8451  18.1937

          k = 0.0000-0.5774 0.2061 ( 12998 PWs)   bands (ev):

   -70.7622 -70.7507 -70.7312 -70.7303 -70.7072 -70.6993 -70.6993 -70.6947
   -40.8655 -40.8597 -40.8432 -40.8373 -37.0719 -37.0457 -36.9599 -36.9359
   -36.8672 -36.8482 -36.8414 -36.8311 -36.8287 -36.8057 -36.7749 -36.7664
   -36.7621 -36.7617 -36.7289 -36.7248 -36.7050 -36.6801 -36.6751 -36.6688
   -36.6545 -36.6409 -36.6287 -36.6272 -17.1923 -17.1880 -17.1801 -17.1798
   -17.1372 -17.1179 -17.0526 -17.0320 -16.9913 -16.9823 -16.9790 -16.9749
    10.7025  11.1587  11.4820  11.8456  12.6634  12.7547  12.8065  12.9009
    13.1523  13.2511  13.4797  13.4862  13.7826  13.9340  13.9342  13.9526
    13.9757  14.0224  14.1262  14.1586  14.2937  14.3785  14.3864  14.3878
    14.4266  14.4526  14.4558  14.5030  14.6435  14.6633  14.8025  14.8049
    15.1682  15.3328  15.7296  15.7887  15.8807  15.9386  15.9899  16.0531
    16.2079  16.2299  16.5823  16.5868  16.7088  16.7494  16.8140  16.8184
    16.8353  17.1798  17.2707  17.3394  17.4747  17.4934  17.7827  17.8898
    17.8915  18.0875

          k = 0.0000-0.5774-0.3091 ( 12972 PWs)   bands (ev):

   -70.7570 -70.7570 -70.7309 -70.7309 -70.7002 -70.7002 -70.6993 -70.6993
   -40.8630 -40.8630 -40.8398 -40.8398 -37.0609 -37.0609 -36.9443 -36.9443
   -36.8538 -36.8538 -36.8387 -36.8387 -36.8244 -36.8244 -36.7719 -36.7719
   -36.7618 -36.7618 -36.7260 -36.7260 -36.6843 -36.6843 -36.6666 -36.6666
   -36.6565 -36.6565 -36.6277 -36.6277 -17.1856 -17.1856 -17.1841 -17.1841
   -17.1296 -17.1296 -17.0408 -17.0408 -16.9852 -16.9852 -16.9785 -16.9785
    10.9500  10.9500  11.5861  11.5861  12.7060  12.7060  12.9062  12.9062
    13.3061  13.3061  13.3509  13.3509  13.8713  13.8713  13.9311  13.9311
    13.9576  13.9576  14.2035  14.2035  14.3534  14.3534  14.3775  14.3775
    14.4079  14.4079  14.4828  14.4828  14.6460  14.6460  14.8364  14.8364
    15.5017  15.5017  15.5845  15.5845  15.8344  15.8344  15.9637  15.9637
    16.2290  16.2290  16.6284  16.6284  16.6611  16.6611  16.8190  16.8190
    16.9918  16.9918  17.3379  17.3379  17.6571  17.6571  17.6808  17.6808
    18.0468  18.0468

          k = 0.1667 0.2887 0.0000 ( 12983 PWs)   bands (ev):

   -70.7752 -70.7522 -70.7265 -70.7211 -70.7095 -70.6993 -70.6993 -70.6917
   -40.8754 -40.8607 -40.8423 -40.8268 -37.1287 -37.0600 -37.0033 -36.8944
   -36.8887 -36.8651 -36.8579 -36.8494 -36.8254 -36.7863 -36.7821 -36.7613
   -36.7465 -36.7445 -36.7441 -36.7039 -36.6831 -36.6544 -36.6490 -36.6488
   -36.6433 -36.6401 -36.6383 -36.6327 -17.1955 -17.1884 -17.1726 -17.1682
   -17.1469 -17.1142 -17.0559 -17.0179 -17.0052 -16.9903 -16.9758 -16.9752
     9.3932  11.2231  11.9127  12.2309  12.5145  12.5405  12.6041  12.8673
    12.9990  13.0180  13.3722  13.5195  13.5805  13.6504  13.7147  13.9110
    13.9489  14.1616  14.2137  14.2933  14.3383  14.4151  14.4375  14.4426
    14.5259  14.5863  14.6308  14.7868  14.9230  15.0309  15.1389  15.2923
    15.3382  15.4898  15.7591  15.8332  15.9361  16.0819  16.1795  16.2306
    16.2353  16.3215  16.5258  16.5481  16.5911  16.6578  16.7665  16.9193
    16.9454  17.0943  17.2231  17.2834  17.2960  17.3081  17.7400  17.7868
    17.7944  17.8697

          k = 0.1667 0.2887 0.1030 ( 12988 PWs)   bands (ev):

   -70.7741 -70.7546 -70.7253 -70.7212 -70.7082 -70.6993 -70.6993 -70.6927
   -40.8748 -40.8624 -40.8406 -40.8275 -37.1261 -37.0707 -36.9892 -36.8995
   -36.8873 -36.8597 -36.8571 -36.8486 -36.8233 -36.8176 -36.7784 -36.7693
   -36.7510 -36.7299 -36.7240 -36.7027 -36.6809 -36.6565 -36.6532 -36.6474
   -36.6448 -36.6406 -36.6382 -36.6352 -17.1937 -17.1874 -17.1737 -17.1699
   -17.1454 -17.1173 -17.0529 -17.0213 -17.0018 -16.9892 -16.9773 -16.9762
     9.4642  10.9187  12.1525  12.2325  12.5123  12.5269  12.5836  12.9796
    12.9933  13.0330  13.3238  13.4668  13.6121  13.6556  13.7272  13.9189
    13.9438  14.0890  14.1804  14.2413  14.3502  14.3782  14.4737  14.4822
    14.5884  14.6242  14.7300  14.8448  14.8997  15.0161  15.1733  15.2762
    15.3124  15.4999  15.7389  15.7731  15.8984  16.0424  16.1505  16.1830
    16.1980  16.3112  16.4165  16.6152  16.6300  16.7094  16.7384  16.9120
    16.9818  17.1463  17.2351  17.2844  17.3284  17.3413  17.6141  17.7599
    17.8285  17.9302

          k = 0.1667 0.2887 0.2061 ( 12994 PWs)   bands (ev):

   -70.7709 -70.7601 -70.7234 -70.7215 -70.7047 -70.6993 -70.6993 -70.6957
   -40.8728 -40.8660 -40.8368 -40.8296 -37.1185 -37.0892 -36.9617 -36.9123
   -36.8824 -36.8554 -36.8551 -36.8473 -36.8406 -36.8164 -36.8014 -36.7881
   -36.7303 -36.7187 -36.7032 -36.6956 -36.6739 -36.6635 -36.6615 -36.6495
   -36.6469 -36.6446 -36.6380 -36.6375 -17.1889 -17.1847 -17.1767 -17.1749
   -17.1407 -17.1247 -17.0456 -17.0282 -16.9952 -16.9864 -16.9816 -16.9788
     9.6730  10.4401  12.2442  12.3358  12.4753  12.5516  12.7077  12.9682
    13.0628  13.1422  13.2286  13.3677  13.6556  13.6706  13.7325  13.8981
    13.9712  14.0192  14.1283  14.1467  14.3264  14.4183  14.5567  14.5778
    14.6553  14.6587  14.8659  14.8692  14.9496  14.9902  15.1436  15.2444
    15.3552  15.5386  15.6614  15.7632  15.8368  15.9145  15.9711  16.0172
    16.1893  16.2961  16.4908  16.6072  16.6647  16.6859  16.7284  16.8501
    17.0946  17.2281  17.2647  17.3174  17.3731  17.4426  17.5401  17.6774
    17.7853  17.9395

          k = 0.1667 0.2887-0.3091 ( 13008 PWs)   bands (ev):

   -70.7660 -70.7660 -70.7221 -70.7221 -70.7000 -70.7000 -70.6993 -70.6993
   -40.8698 -40.8698 -40.8328 -40.8328 -37.1059 -37.1059 -36.9336 -36.9336
   -36.8715 -36.8715 -36.8533 -36.8533 -36.8229 -36.8229 -36.8045 -36.8045
   -36.7199 -36.7199 -36.6888 -36.6888 -36.6703 -36.6703 -36.6613 -36.6613
   -36.6463 -36.6463 -36.6379 -36.6379 -17.1825 -17.1825 -17.1802 -17.1802
   -17.1333 -17.1333 -17.0367 -17.0367 -16.9881 -16.9881 -16.9824 -16.9824
    10.0068  10.0068  12.2807  12.2807  12.5492  12.5492  12.8656  12.8656
    13.1300  13.1300  13.2728  13.2728  13.6672  13.6672  13.7946  13.7946
    14.0113  14.0113  14.1175  14.1175  14.3742  14.3742  14.6176  14.6176
    14.6675  14.6675  14.9174  14.9174  14.9567  14.9567  15.1543  15.1543
    15.5092  15.5092  15.7513  15.7513  15.7710  15.7710  15.8891  15.8891
    16.2482  16.2482  16.5689  16.5689  16.6669  16.6669  16.7623  16.7623
    17.2105  17.2105  17.2831  17.2831  17.4693  17.4693  17.5915  17.5915
    17.8129  17.8129

          k = 0.1667 0.4811 0.0000 ( 12999 PWs)   bands (ev):

   -70.7667 -70.7424 -70.7313 -70.7265 -70.7194 -70.6993 -70.6993 -70.6900
   -40.8675 -40.8523 -40.8508 -40.8352 -37.0761 -37.0070 -36.9991 -36.9337
   -36.8887 -36.8681 -36.8598 -36.8097 -36.7867 -36.7833 -36.7762 -36.7644
   -36.7625 -36.7496 -36.7482 -36.7382 -36.6978 -36.6925 -36.6790 -36.6527
   -36.6452 -36.6449 -36.6441 -36.6273 -17.1990 -17.1935 -17.1803 -17.1774
   -17.1317 -17.0896 -17.0790 -17.0338 -16.9958 -16.9829 -16.9773 -16.9671
    10.2880  11.5134  11.9175  12.3094  12.3256  12.6055  12.6533  12.8371
    12.8812  13.1333  13.6523  13.7023  13.7651  13.8275  13.8413  13.9094
    13.9113  14.0362  14.1880  14.2049  14.2356  14.3131  14.4069  14.4181
    14.4868  14.5014  14.5286  14.5494  14.6183  14.7079  14.8347  14.8530
    14.9853  15.1276  15.6567  15.7830  15.9417  15.9533  16.0825  16.1504
    16.3909  16.4241  16.4566  16.6030  16.6778  16.7229  16.8243  16.9513
    17.1277  17.1284  17.2065  17.2238  17.3226  17.4610  17.7244  17.7905
    17.9212  18.0274

          k = 0.1667 0.4811 0.1030 ( 13012 PWs)   bands (ev):

   -70.7656 -70.7448 -70.7313 -70.7287 -70.7147 -70.6993 -70.6993 -70.6912
   -40.8670 -40.8558 -40.8472 -40.8357 -37.0740 -37.0242 -36.9812 -36.9352
   -36.8867 -36.8636 -36.8573 -36.8131 -36.8037 -36.7889 -36.7799 -36.7727
   -36.7578 -36.7528 -36.7316 -36.7276 -36.6939 -36.6902 -36.6776 -36.6561
   -36.6485 -36.6449 -36.6430 -36.6306 -17.1976 -17.1920 -17.1816 -17.1773
   -17.1321 -17.1006 -17.0682 -17.0343 -16.9952 -16.9818 -16.9788 -16.9681
    10.3492  11.4687  11.7429  12.2516  12.5431  12.5555  12.6676  12.8200
    12.9608  13.1604  13.5948  13.6520  13.7849  13.8105  13.8871  13.9015
    13.9560  14.0412  14.0899  14.1550  14.2509  14.2689  14.3638  14.4411
    14.4547  14.5110  14.5393  14.5873  14.6476  14.7938  14.8535  14.9199
    15.0254  15.1650  15.6515  15.7507  15.8445  15.9780  16.0680  16.1138
    16.2621  16.3410  16.5652  16.6123  16.6884  16.6988  16.8395  16.9744
    17.0837  17.1397  17.1966  17.2758  17.3340  17.4477  17.6587  17.9030
    17.9567  18.0045

          k = 0.1667 0.4811 0.2061 ( 13009 PWs)   bands (ev):

   -70.7622 -70.7507 -70.7312 -70.7303 -70.7072 -70.6993 -70.6993 -70.6947
   -40.8654 -40.8597 -40.8433 -40.8373 -37.0675 -37.0423 -36.9622 -36.9398
   -36.8778 -36.8531 -36.8506 -36.8330 -36.8198 -36.8068 -36.7804 -36.7772
   -36.7561 -36.7544 -36.7143 -36.7108 -36.6907 -36.6778 -36.6720 -36.6653
   -36.6557 -36.6466 -36.6424 -36.6383 -17.1941 -17.1880 -17.1849 -17.1785
   -17.1309 -17.1142 -17.0549 -17.0370 -16.9927 -16.9828 -16.9787 -16.9709
    10.5283  11.1630  11.7649  12.1158  12.5338  12.6302  12.7749  12.8289
    13.1160  13.2303  13.4694  13.5173  13.8066  13.8408  13.8891  13.9162
    13.9630  14.0308  14.0515  14.1295  14.2158  14.2795  14.3370  14.3710
    14.4279  14.4823  14.5494  14.6040  14.7223  14.8409  14.9594  14.9916
    15.2113  15.3183  15.6263  15.6511  15.7147  15.8661  16.0131  16.0753
    16.1428  16.2323  16.5898  16.6394  16.6706  16.7463  16.8637  16.9804
    17.0602  17.1388  17.2405  17.2924  17.3303  17.4775  17.6758  17.8313
    17.9744  18.1278

          k = 0.1667 0.4811-0.3091 ( 13016 PWs)   bands (ev):

   -70.7570 -70.7570 -70.7309 -70.7309 -70.7002 -70.7002 -70.6993 -70.6993
   -40.8630 -40.8630 -40.8399 -40.8399 -37.0569 -37.0569 -36.9484 -36.9484
   -36.8597 -36.8597 -36.8448 -36.8448 -36.8218 -36.8218 -36.7794 -36.7794
   -36.7553 -36.7553 -36.7064 -36.7064 -36.6794 -36.6794 -36.6666 -36.6666
   -36.6571 -36.6571 -36.6418 -36.6418 -17.1896 -17.1896 -17.1825 -17.1825
   -17.1250 -17.1250 -17.0440 -17.0440 -16.9880 -16.9880 -16.9747 -16.9747
    10.8104  10.8104  11.9249  11.9249  12.5868  12.5868  12.8299  12.8299
    13.2944  13.2944  13.3696  13.3696  13.8374  13.8374  13.8817  13.8817
    14.0055  14.0055  14.0870  14.0870  14.2459  14.2459  14.3610  14.3610
    14.4268  14.4268  14.5660  14.5660  14.7975  14.7975  15.0283  15.0283
    15.4257  15.4257  15.5730  15.5730  15.6836  15.6836  15.9967  15.9967
    16.1694  16.1694  16.6246  16.6246  16.7098  16.7098  16.9222  16.9222
    17.0976  17.0976  17.2717  17.2717  17.4328  17.4328  17.7501  17.7501
    18.0032  18.0033

          k = 0.3333 0.5774 0.0000 ( 12987 PWs)   bands (ev):

   -70.7627 -70.7359 -70.7359 -70.7265 -70.7259 -70.6993 -70.6993 -70.6896
   -40.8592 -40.8592 -40.8437 -40.8437 -37.0409 -36.9976 -36.9670 -36.9670
   -36.9197 -36.8651 -36.8651 -36.7880 -36.7880 -36.7772 -36.7772 -36.7693
   -36.7604 -36.7604 -36.7557 -36.6945 -36.6945 -36.6933 -36.6795 -36.6795
   -36.6719 -36.6486 -36.6486 -36.6260 -17.2031 -17.1869 -17.1869 -17.1856
   -17.1057 -17.1057 -17.0607 -17.0607 -16.9858 -16.9858 -16.9784 -16.9626
    10.8837  11.6237  11.6238  12.3721  12.4076  12.6319  12.6319  12.7349
    12.7349  13.0881  13.7840  13.7840  13.8582  13.8582  13.9725  13.9725
    13.9750  13.9785  14.0174  14.0174  14.1084  14.2115  14.2572  14.2572
    14.5171  14.5171  14.5291  14.5859  14.5859  14.8866  14.8866  14.9439
    14.9792  15.0591  15.6625  15.7048  15.7048  15.7464  15.7464  16.0390
    16.5545  16.5545  16.5746  16.5746  16.7903  16.7903  16.9454  16.9454
    16.9709  17.1399  17.3140  17.3854  17.3854  17.4015  17.7714  17.7715
    17.8205  17.9671

          k = 0.3333 0.5774 0.1030 ( 13014 PWs)   bands (ev):

   -70.7614 -70.7359 -70.7359 -70.7356 -70.7167 -70.6993 -70.6993 -70.6908
   -40.8592 -40.8592 -40.8437 -40.8437 -37.0391 -37.0030 -36.9672 -36.9672
   -36.9106 -36.8621 -36.8621 -36.7952 -36.7930 -36.7930 -36.7851 -36.7851
   -36.7510 -36.7510 -36.7333 -36.6938 -36.6921 -36.6921 -36.6791 -36.6791
   -36.6701 -36.6511 -36.6511 -36.6293 -17.2020 -17.1868 -17.1857 -17.1857
   -17.1094 -17.1094 -17.0573 -17.0573 -16.9867 -16.9867 -16.9772 -16.9636
    10.9342  11.6646  11.6646  11.9960  12.5137  12.5137  12.7860  12.8054
    12.8054  13.1221  13.7474  13.7474  13.8407  13.9086  13.9086  13.9270
    13.9612  13.9612  14.0201  14.0201  14.1477  14.1885  14.1944  14.1944
    14.4650  14.4650  14.5641  14.7230  14.7230  14.8826  14.8926  14.8926
    15.0750  15.1423  15.6181  15.6181  15.6332  15.8301  15.8301  15.9796
    16.3963  16.3963  16.6319  16.6319  16.7993  16.7993  16.9615  16.9938
    16.9938  17.1690  17.2198  17.3746  17.3746  17.4111  17.7669  17.7669
    17.9616  17.9618

          k = 0.3333 0.5774 0.2061 ( 13038 PWs)   bands (ev):

   -70.7578 -70.7444 -70.7359 -70.7359 -70.7079 -70.6993 -70.6993 -70.6945
   -40.8593 -40.8593 -40.8436 -40.8436 -37.0338 -37.0143 -36.9677 -36.9677
   -36.8885 -36.8541 -36.8541 -36.8280 -36.8096 -36.8096 -36.7863 -36.7863
   -36.7419 -36.7419 -36.7125 -36.6959 -36.6863 -36.6863 -36.6766 -36.6766
   -36.6635 -36.6583 -36.6583 -36.6386 -17.1990 -17.1902 -17.1831 -17.1831
   -17.1161 -17.1161 -17.0513 -17.0513 -16.9886 -16.9886 -16.9742 -16.9664
    11.0830  11.6317  11.7701  11.7701  12.3347  12.3347  12.8643  12.8643
    13.1521  13.2198  13.6298  13.7138  13.7138  13.7763  13.9036  13.9036
    13.9384  13.9384  14.0791  14.0791  14.1487  14.1528  14.1591  14.1591
    14.4184  14.4184  14.6439  14.7516  14.7516  14.8118  15.0478  15.0478
    15.2242  15.3335  15.4992  15.4992  15.5538  15.8210  15.9105  15.9105
    16.2269  16.2269  16.6369  16.6369  16.8114  16.8114  16.9570  17.0749
    17.0749  17.0778  17.2504  17.3359  17.3359  17.4003  17.7767  17.7767
    17.9201  17.9201

          k = 0.3333 0.5774-0.3091 ( 13074 PWs)   bands (ev):

   -70.7520 -70.7520 -70.7359 -70.7359 -70.7003 -70.7003 -70.6993 -70.6993
   -40.8594 -40.8594 -40.8436 -40.8436 -37.0253 -37.0253 -36.9679 -36.9679
   -36.8599 -36.8599 -36.8479 -36.8479 -36.8194 -36.8194 -36.7864 -36.7864
   -36.7389 -36.7389 -36.7009 -36.7009 -36.6840 -36.6840 -36.6684 -36.6684
   -36.6684 -36.6684 -36.6515 -36.6515 -17.1947 -17.1947 -17.1817 -17.1817
   -17.1193 -17.1193 -17.0486 -17.0486 -16.9896 -16.9896 -16.9702 -16.9702
    11.3205  11.3205  11.8499  11.8499  12.2281  12.2281  12.8833  12.8833
    13.3430  13.3430  13.5603  13.5603  13.7005  13.7005  13.8819  13.8819
    13.9281  13.9281  14.1248  14.1248  14.1399  14.1399  14.1655  14.1655
    14.3905  14.3905  14.7291  14.7291  14.7315  14.7315  15.1917  15.1917
    15.3761  15.3761  15.3977  15.3977  15.6109  15.6109  15.9415  15.9415
    16.1587  16.1587  16.6348  16.6348  16.8163  16.8163  16.9898  16.9898
    17.1187  17.1187  17.3031  17.3031  17.3390  17.3390  17.7872  17.7872
    17.8926  17.8926

     the Fermi energy is    16.1675 ev

!    total energy              =   -3111.33786994 Ry
     estimated scf accuracy    <          7.3E-09 Ry
     smearing contrib. (-TS)   =       0.00009911 Ry
     internal energy E=F+TS    =   -3111.33796904 Ry

     The total energy is F=E-TS. E is the sum of the following terms:
     one-electron contribution =   -1208.34484879 Ry
     hartree contribution      =     698.26573080 Ry
     xc contribution           =    -349.40553083 Ry
     ewald contribution        =   -1642.60130586 Ry
     one-center paw contrib.   =    -609.25201436 Ry

     convergence has been achieved in  28 iterations

     negative rho (up, down):  2.805E-03 0.000E+00

     Forces acting on atoms (cartesian axes, Ry/au):

     atom    1 type  1   force =    -0.01346530    0.00777419   -0.00000000
     atom    2 type  1   force =     0.01346530   -0.00777419   -0.00000000
     atom    3 type  1   force =     0.00000000    0.01554839   -0.00000000
     atom    4 type  1   force =     0.01346530    0.00777419   -0.00000000
     atom    5 type  1   force =     0.00000000   -0.01554839   -0.00000000
     atom    6 type  1   force =    -0.01346530   -0.00777419    0.00000000
     atom    7 type  1   force =    -0.00000000    0.00000000   -0.00000000
     atom    8 type  1   force =     0.00000000   -0.00000000    0.00000000
     atom    9 type  2   force =     0.00000000   -0.00000000   -0.01103317
     atom   10 type  2   force =     0.00000000    0.00000000   -0.01103317
     atom   11 type  2   force =    -0.00000000    0.00000000    0.01103317
     atom   12 type  2   force =     0.00000000    0.00000000    0.01103317

     Total force =     0.044016     Total SCF correction =     0.000125


     Computing stress (Cartesian axis) and pressure


     negative rho (up, down):  2.805E-03 0.000E+00
          total   stress  (Ry/bohr**3)                   (kbar)     P=     -162.16
  -0.00118786   0.00000000  -0.00000000         -174.74        0.00       -0.00
   0.00000000  -0.00118786   0.00000000            0.00     -174.74        0.00
   0.00000000   0.00000000  -0.00093131            0.00        0.00     -137.00


     Writing all to output data dir ./FeAl.save/ :
     XML data file, charge density, pseudopotentials, collected wavefunctions

     init_run     :      3.68s CPU      3.74s WALL (       1 calls)
     electrons    :    199.49s CPU    201.43s WALL (       1 calls)
     forces       :      0.83s CPU      0.84s WALL (       1 calls)
     stress       :      3.05s CPU      3.07s WALL (       1 calls)

     Called by init_run:
     wfcinit      :      2.65s CPU      2.68s WALL (       1 calls)
     potinit      :      0.42s CPU      0.44s WALL (       1 calls)
     hinit0       :      0.47s CPU      0.48s WALL (       1 calls)

     Called by electrons:
     c_bands      :    172.09s CPU    173.60s WALL (      28 calls)
     sum_band     :     21.09s CPU     21.34s WALL (      28 calls)
     v_of_rho     :      0.24s CPU      0.27s WALL (      29 calls)
     newd         :      1.38s CPU      1.39s WALL (      29 calls)
     PAW_pot      :      4.81s CPU      4.85s WALL (      29 calls)
     mix_rho      :      0.07s CPU      0.07s WALL (      28 calls)

     Called by c_bands:
     init_us_2    :      1.11s CPU      1.12s WALL (    1652 calls)
     cegterg      :    166.33s CPU    167.79s WALL (     784 calls)

     Called by *egterg:
     cdiaghg      :     36.84s CPU     36.97s WALL (    3023 calls)
     h_psi        :     88.41s CPU     89.57s WALL (    3051 calls)
     s_psi        :      7.23s CPU      7.26s WALL (    3051 calls)
     g_psi        :      0.36s CPU      0.36s WALL (    2239 calls)

     Called by h_psi:
     h_psi:calbec :     11.77s CPU     11.84s WALL (    3051 calls)
     vloc_psi     :     68.97s CPU     70.02s WALL (    3051 calls)
     add_vuspsi   :      7.34s CPU      7.38s WALL (    3051 calls)

     General routines
     calbec       :     18.76s CPU     18.86s WALL (    4311 calls)
     fft          :      0.58s CPU      0.61s WALL (     400 calls)
     ffts         :      0.25s CPU      0.26s WALL (      57 calls)
     fftw         :     74.43s CPU     75.52s WALL (  511110 calls)
     interpolate  :      0.26s CPU      0.27s WALL (      29 calls)

     Parallel routines

     PWSCF        :    207.81s CPU    216.90s WALL


   This run was terminated on:  14:50: 1  27Oct2025            

=------------------------------------------------------------------------------=
   JOB DONE.
=------------------------------------------------------------------------------=
Note: The following floating-point exceptions are signalling: IEEE_UNDERFLOW_FLAG IEEE_DENORMAL
Note: The following floating-point exceptions are signalling: IEEE_UNDERFLOW_FLAG IEEE_DENORMAL
Note: The following floating-point exceptions are signalling: IEEE_UNDERFLOW_FLAG IEEE_DENORMAL
Note: The following floating-point exceptions are signalling: IEEE_UNDERFLOW_FLAG IEEE_DENORMAL
Note: The following floating-point exceptions are signalling: IEEE_UNDERFLOW_FLAG IEEE_DENORMAL
Note: The following floating-point exceptions are signalling: IEEE_UNDERFLOW_FLAG IEEE_DENORMAL
Note: The following floating-point exceptions are signalling: IEEE_UNDERFLOW_FLAG IEEE_DENORMAL
Note: The following floating-point exceptions are signalling: IEEE_UNDERFLOW_FLAG IEEE_DENORMAL
Note: The following floating-point exceptions are signalling: IEEE_UNDERFLOW_FLAG IEEE_DENORMAL
Note: The following floating-point exceptions are signalling: IEEE_UNDERFLOW_FLAG IEEE_DENORMAL
Note: The following floating-point exceptions are signalling: IEEE_UNDERFLOW_FLAG IEEE_DENORMAL
Note: The following floating-point exceptions are signalling: IEEE_UNDERFLOW_FLAG IEEE_DENORMAL
Note: The following floating-point exceptions are signalling: IEEE_UNDERFLOW_FLAG IEEE_DENORMAL
Note: The following floating-point exceptions are signalling: IEEE_UNDERFLOW_FLAG IEEE_DENORMAL
Note: The following floating-point exceptions are signalling: IEEE_UNDERFLOW_FLAG IEEE_DENORMAL
Note: The following floating-point exceptions are signalling: IEEE_UNDERFLOW_FLAG IEEE_DENORMAL
