
     Program PWSCF v.7.4 starts on 27Oct2025 at 15: 3:24 

     This program is part of the open-source Quantum ESPRESSO suite
     for quantum simulation of materials; please cite
         "P. Giannozzi et al., J. Phys.:Condens. Matter 21 395502 (2009);
         "P. Giannozzi et al., J. Phys.:Condens. Matter 29 465901 (2017);
         "P. Giannozzi et al., J. Chem. Phys. 152 154105 (2020);
          URL http://www.quantum-espresso.org", 
     in publications or presentations arising from this work. More details at
     http://www.quantum-espresso.org/quote

     Parallel version (MPI & OpenMP), running on      16 processor cores
     Number of MPI processes:                16
     Threads/MPI process:                     1

     MPI processes distributed on     1 nodes
     228258 MiB available memory on the printing compute node when the environment starts

     Reading input from TiFe2_ecutwfc_convergence/TiFe2_ecut120.in

     Current dimensions of program PWSCF are:
     Max number of different atomic species (ntypx) = 10
     Max number of k-points (npk) =  40000
     Max angular momentum in pseudopotentials (lmaxx) =  4
     file Fe.pbe-spn-kjpaw_psl.0.2.1.UPF: wavefunction(s)  3D renormalized

     IMPORTANT: XC functional enforced from input :
     Exchange-correlation= PBE
                           (   1   4   3   4   0   0   0)
     Any further DFT definition will be discarded
     Please, verify this is what you really want

     Message from routine setup:
     using ibrav=0 with symmetry is DISCOURAGED, use correct ibrav instead

     R & G space division:  proc/nbgrp/npool/nimage =      16
     Subspace diagonalization in iterative solution of the eigenvalue problem:
     a serial algorithm will be used


     Parallelization info
     --------------------
     sticks:   dense  smooth     PW     G-vecs:    dense   smooth      PW
     Min         216     173     47                16678    11933    1701
     Max         217     174     48                16687    11937    1707
     Sum        3463    2773    757               266941   190963   27283

     Using Slab Decomposition



     bravais-lattice index     =            0
     lattice parameter (alat)  =       9.1568  a.u.
     unit-cell volume          =    1075.5644 (a.u.)^3
     number of atoms/cell      =           12
     number of atomic types    =            2
     number of electrons       =       176.00
     number of Kohn-Sham states=          106
     kinetic-energy cutoff     =     120.0000  Ry
     charge density cutoff     =     600.0000  Ry
     scf convergence threshold =      1.0E-08
     mixing beta               =       0.7000
     number of iterations used =            8  plain     mixing
     Exchange-correlation= PBE
                           (   1   4   3   4   0   0   0)

     celldm(1)=   9.156781  celldm(2)=   0.000000  celldm(3)=   0.000000
     celldm(4)=   0.000000  celldm(5)=   0.000000  celldm(6)=   0.000000

     crystal axes: (cart. coord. in units of alat)
               a(1) = (   1.000000   0.000000   0.000000 )  
               a(2) = (  -0.500000   0.866025   0.000000 )  
               a(3) = (   0.000000   0.000000   1.617623 )  

     reciprocal axes: (cart. coord. in units 2 pi/alat)
               b(1) = (  1.000000  0.577350 -0.000000 )  
               b(2) = (  0.000000  1.154701  0.000000 )  
               b(3) = (  0.000000 -0.000000  0.618191 )  


     PseudoPot. # 1 for Fe read from file:
     ./Fe.pbe-spn-kjpaw_psl.0.2.1.UPF
     MD5 check sum: e86618425769142926afa95317d90200
     Pseudo is Projector augmented-wave + core cor, Zval = 16.0
     Generated using "atomic" code by A. Dal Corso  v.5.0.99 svn rev. 10869
     Shape of augmentation charge: PSQ
     Using radial grid of 1191 points,  6 beta functions with: 
                l(1) =   0
                l(2) =   0
                l(3) =   1
                l(4) =   1
                l(5) =   2
                l(6) =   2
     Q(r) pseudized with 0 coefficients 


     PseudoPot. # 2 for Ti read from file:
     ./Ti_pbe_v1.4.uspp.F.UPF
     MD5 check sum: 88a00a6731bd790ddea75d31a80cb452
     Pseudo is Ultrasoft + core correction, Zval = 12.0
     Generated by new atomic code, or converted to UPF format
     Using radial grid of  851 points,  6 beta functions with: 
                l(1) =   0
                l(2) =   0
                l(3) =   1
                l(4) =   1
                l(5) =   2
                l(6) =   2
     Q(r) pseudized with  6 coefficients,  rinner =    1.000   1.000   1.000
                                                       1.000   1.000

     atomic species   valence    mass     pseudopotential
     Fe               16.00    55.84500     Fe( 1.00)
     Ti               12.00    47.86700     Ti( 1.00)

     24 Sym. Ops., with inversion, found (12 have fractional translation)



   Cartesian axes

     site n.     atom                  positions (alat units)
         1        Fe     tau(   1) = (   0.7465670   0.1463196   0.4044057  )
         2        Fe     tau(   2) = (  -0.2465670   0.7197058   1.2132171  )
         3        Fe     tau(   3) = (  -0.0000000   0.2926392   1.2132171  )
         4        Fe     tau(   4) = (   0.2534330   0.1463196   0.4044057  )
         5        Fe     tau(   5) = (   0.5000000   0.5733862   0.4044057  )
         6        Fe     tau(   6) = (   0.2465670   0.7197058   1.2132171  )
         7        Fe     tau(   7) = (   0.0000000   0.0000000   0.0000000  )
         8        Fe     tau(   8) = (   0.0000000   0.0000000   0.8088114  )
         9        Ti     tau(   9) = (   0.5000000   0.2886751   1.5200090  )
        10        Ti     tau(  10) = (  -0.0000000   0.5773503   0.7111976  )
        11        Ti     tau(  11) = (  -0.0000000   0.5773503   0.0976138  )
        12        Ti     tau(  12) = (   0.5000000   0.2886751   0.9064252  )

     number of k points=    28  Marzari-Vanderbilt smearing, width (Ry)=  0.0050
                       cart. coord. in units 2pi/alat
        k(    1) = (   0.0000000   0.0000000   0.0000000), wk =   0.0092593
        k(    2) = (   0.0000000   0.0000000   0.1030318), wk =   0.0185185
        k(    3) = (   0.0000000   0.0000000   0.2060637), wk =   0.0185185
        k(    4) = (   0.0000000   0.0000000  -0.3090955), wk =   0.0092593
        k(    5) = (   0.0000000   0.1924501   0.0000000), wk =   0.0555556
        k(    6) = (   0.0000000   0.1924501   0.1030318), wk =   0.1111111
        k(    7) = (   0.0000000   0.1924501   0.2060637), wk =   0.1111111
        k(    8) = (   0.0000000   0.1924501  -0.3090955), wk =   0.0555556
        k(    9) = (   0.0000000   0.3849002   0.0000000), wk =   0.0555556
        k(   10) = (   0.0000000   0.3849002   0.1030318), wk =   0.1111111
        k(   11) = (   0.0000000   0.3849002   0.2060637), wk =   0.1111111
        k(   12) = (   0.0000000   0.3849002  -0.3090955), wk =   0.0555556
        k(   13) = (   0.0000000  -0.5773503   0.0000000), wk =   0.0277778
        k(   14) = (   0.0000000  -0.5773503   0.1030318), wk =   0.0555556
        k(   15) = (   0.0000000  -0.5773503   0.2060637), wk =   0.0555556
        k(   16) = (   0.0000000  -0.5773503  -0.3090955), wk =   0.0277778
        k(   17) = (   0.1666667   0.2886751   0.0000000), wk =   0.0555556
        k(   18) = (   0.1666667   0.2886751   0.1030318), wk =   0.1111111
        k(   19) = (   0.1666667   0.2886751   0.2060637), wk =   0.1111111
        k(   20) = (   0.1666667   0.2886751  -0.3090955), wk =   0.0555556
        k(   21) = (   0.1666667   0.4811252   0.0000000), wk =   0.1111111
        k(   22) = (   0.1666667   0.4811252   0.1030318), wk =   0.2222222
        k(   23) = (   0.1666667   0.4811252   0.2060637), wk =   0.2222222
        k(   24) = (   0.1666667   0.4811252  -0.3090955), wk =   0.1111111
        k(   25) = (   0.3333333   0.5773503   0.0000000), wk =   0.0185185
        k(   26) = (   0.3333333   0.5773503   0.1030318), wk =   0.0370370
        k(   27) = (   0.3333333   0.5773503   0.2060637), wk =   0.0370370
        k(   28) = (   0.3333333   0.5773503  -0.3090955), wk =   0.0185185

     Dense  grid:   266941 G-vectors     FFT dimensions: (  72,  72, 120)

     Smooth grid:   190963 G-vectors     FFT dimensions: (  64,  64, 108)

     Estimated max dynamical RAM per process >     142.18 MB

     Estimated total dynamical RAM >       2.22 GB

     Check: negative core charge=   -0.000013

     Initial potential from superposition of free atoms

     starting charge     171.9963, renormalised to     176.0000

     negative rho (up, down):  5.105E-03 0.000E+00
     Starting wfcs are  144 randomized atomic wfcs
     Checking if some PAW data can be deallocated... 

     total cpu time spent up to now is        5.8 secs

     per-process dynamical memory:   201.3 Mb

     Self-consistent Calculation

     iteration #  1     ecut=   120.00 Ry     beta= 0.70
     Davidson diagonalization with overlap
     ethr =  1.00E-02,  avg # of iterations =  2.0

     negative rho (up, down):  7.360E-04 0.000E+00

     total cpu time spent up to now is       15.8 secs

     total energy              =   -3017.05193088 Ry
     estimated scf accuracy    <     116.51737667 Ry

     iteration #  2     ecut=   120.00 Ry     beta= 0.70
     Davidson diagonalization with overlap
     ethr =  1.00E-02,  avg # of iterations =  6.7

     total cpu time spent up to now is       36.0 secs

     total energy              =   -3075.95964095 Ry
     estimated scf accuracy    <     699.70759247 Ry

     iteration #  3     ecut=   120.00 Ry     beta= 0.70
     Davidson diagonalization with overlap
     ethr =  1.00E-02,  avg # of iterations =  5.1

     total cpu time spent up to now is       51.6 secs

     total energy              =   -3120.91500961 Ry
     estimated scf accuracy    <      91.26775302 Ry

     iteration #  4     ecut=   120.00 Ry     beta= 0.70
     Davidson diagonalization with overlap
     ethr =  1.00E-02,  avg # of iterations =  1.2

     negative rho (up, down):  9.978E-06 0.000E+00

     total cpu time spent up to now is       59.6 secs

     total energy              =   -3116.48516197 Ry
     estimated scf accuracy    <      54.23614605 Ry

     iteration #  5     ecut=   120.00 Ry     beta= 0.70
     Davidson diagonalization with overlap
     ethr =  1.00E-02,  avg # of iterations =  1.8

     negative rho (up, down):  1.628E-04 0.000E+00

     total cpu time spent up to now is       68.0 secs

     total energy              =   -3115.19247682 Ry
     estimated scf accuracy    <      41.70874705 Ry

     iteration #  6     ecut=   120.00 Ry     beta= 0.70
     Davidson diagonalization with overlap
     ethr =  1.00E-02,  avg # of iterations =  1.0

     negative rho (up, down):  4.426E-04 0.000E+00

     total cpu time spent up to now is       75.7 secs

     total energy              =   -3113.66075178 Ry
     estimated scf accuracy    <      25.99740849 Ry

     iteration #  7     ecut=   120.00 Ry     beta= 0.70
     Davidson diagonalization with overlap
     ethr =  1.00E-02,  avg # of iterations =  1.0

     negative rho (up, down):  1.158E-03 0.000E+00

     total cpu time spent up to now is       83.5 secs

     total energy              =   -3111.33623931 Ry
     estimated scf accuracy    <      18.25840133 Ry

     iteration #  8     ecut=   120.00 Ry     beta= 0.70
     Davidson diagonalization with overlap
     ethr =  1.00E-02,  avg # of iterations =  1.0

     negative rho (up, down):  1.326E-03 0.000E+00

     total cpu time spent up to now is       91.3 secs

     total energy              =   -3111.48490039 Ry
     estimated scf accuracy    <       6.09414786 Ry

     iteration #  9     ecut=   120.00 Ry     beta= 0.70
     Davidson diagonalization with overlap
     ethr =  3.46E-03,  avg # of iterations =  1.8

     negative rho (up, down):  1.886E-03 0.000E+00

     total cpu time spent up to now is       99.8 secs

     total energy              =   -3111.22761313 Ry
     estimated scf accuracy    <       4.35049137 Ry

     iteration # 10     ecut=   120.00 Ry     beta= 0.70
     Davidson diagonalization with overlap
     ethr =  2.47E-03,  avg # of iterations =  2.1

     negative rho (up, down):  4.512E-03 0.000E+00

     total cpu time spent up to now is      108.6 secs

     total energy              =   -3110.93399693 Ry
     estimated scf accuracy    <       1.42073848 Ry

     iteration # 11     ecut=   120.00 Ry     beta= 0.70
     Davidson diagonalization with overlap
     ethr =  8.07E-04,  avg # of iterations =  5.5

     negative rho (up, down):  3.475E-03 0.000E+00

     total cpu time spent up to now is      122.7 secs

     total energy              =   -3111.29512806 Ry
     estimated scf accuracy    <       6.87182385 Ry

     iteration # 12     ecut=   120.00 Ry     beta= 0.70
     Davidson diagonalization with overlap
     ethr =  8.07E-04,  avg # of iterations =  1.1

     negative rho (up, down):  1.617E-03 0.000E+00

     total cpu time spent up to now is      130.6 secs

     total energy              =   -3111.11177851 Ry
     estimated scf accuracy    <       1.45183077 Ry

     iteration # 13     ecut=   120.00 Ry     beta= 0.70
     Davidson diagonalization with overlap
     ethr =  8.07E-04,  avg # of iterations =  3.3

     negative rho (up, down):  2.385E-03 0.000E+00

     total cpu time spent up to now is      140.8 secs

     total energy              =   -3111.39480741 Ry
     estimated scf accuracy    <       1.32197494 Ry

     iteration # 14     ecut=   120.00 Ry     beta= 0.70
     Davidson diagonalization with overlap
     ethr =  7.51E-04,  avg # of iterations =  1.0

     negative rho (up, down):  2.851E-03 0.000E+00

     total cpu time spent up to now is      148.6 secs

     total energy              =   -3111.33504487 Ry
     estimated scf accuracy    <       0.78909232 Ry

     iteration # 15     ecut=   120.00 Ry     beta= 0.70
     Davidson diagonalization with overlap
     ethr =  4.48E-04,  avg # of iterations =  1.2

     negative rho (up, down):  2.904E-03 0.000E+00

     total cpu time spent up to now is      156.5 secs

     total energy              =   -3111.35258027 Ry
     estimated scf accuracy    <       0.10214752 Ry

     iteration # 16     ecut=   120.00 Ry     beta= 0.70
     Davidson diagonalization with overlap
     ethr =  5.80E-05,  avg # of iterations =  2.8

     negative rho (up, down):  2.943E-03 0.000E+00

     total cpu time spent up to now is      165.3 secs

     total energy              =   -3111.35300178 Ry
     estimated scf accuracy    <       0.06233103 Ry

     iteration # 17     ecut=   120.00 Ry     beta= 0.70
     Davidson diagonalization with overlap
     ethr =  3.54E-05,  avg # of iterations =  1.8

     negative rho (up, down):  3.057E-03 0.000E+00

     total cpu time spent up to now is      173.6 secs

     total energy              =   -3111.34907600 Ry
     estimated scf accuracy    <       0.06140551 Ry

     iteration # 18     ecut=   120.00 Ry     beta= 0.70
     Davidson diagonalization with overlap
     ethr =  3.49E-05,  avg # of iterations =  1.4

     negative rho (up, down):  3.150E-03 0.000E+00

     total cpu time spent up to now is      181.7 secs

     total energy              =   -3111.34857948 Ry
     estimated scf accuracy    <       0.01553403 Ry

     iteration # 19     ecut=   120.00 Ry     beta= 0.70
     Davidson diagonalization with overlap
     c_bands:  1 eigenvalues not converged
     ethr =  8.83E-06,  avg # of iterations =  6.5

     negative rho (up, down):  3.154E-03 0.000E+00

     total cpu time spent up to now is      192.8 secs

     total energy              =   -3111.34986785 Ry
     estimated scf accuracy    <       0.00001594 Ry

     iteration # 20     ecut=   120.00 Ry     beta= 0.70
     Davidson diagonalization with overlap
     c_bands:  1 eigenvalues not converged
     ethr =  9.06E-09,  avg # of iterations = 11.7

     negative rho (up, down):  3.158E-03 0.000E+00

     total cpu time spent up to now is      226.3 secs

     total energy              =   -3111.35010162 Ry
     estimated scf accuracy    <       0.00005881 Ry

     iteration # 21     ecut=   120.00 Ry     beta= 0.70
     Davidson diagonalization with overlap
     ethr =  9.06E-09,  avg # of iterations =  1.7

     negative rho (up, down):  3.162E-03 0.000E+00

     total cpu time spent up to now is      234.6 secs

     total energy              =   -3111.35010358 Ry
     estimated scf accuracy    <       0.00001711 Ry

     iteration # 22     ecut=   120.00 Ry     beta= 0.70
     Davidson diagonalization with overlap
     ethr =  9.06E-09,  avg # of iterations =  1.0

     negative rho (up, down):  3.163E-03 0.000E+00

     total cpu time spent up to now is      242.4 secs

     total energy              =   -3111.35010500 Ry
     estimated scf accuracy    <       0.00003229 Ry

     iteration # 23     ecut=   120.00 Ry     beta= 0.70
     Davidson diagonalization with overlap
     ethr =  9.06E-09,  avg # of iterations =  1.0

     negative rho (up, down):  3.160E-03 0.000E+00

     total cpu time spent up to now is      250.2 secs

     total energy              =   -3111.35010127 Ry
     estimated scf accuracy    <       0.00004417 Ry

     iteration # 24     ecut=   120.00 Ry     beta= 0.70
     Davidson diagonalization with overlap
     ethr =  9.06E-09,  avg # of iterations =  1.4

     negative rho (up, down):  3.159E-03 0.000E+00

     total cpu time spent up to now is      258.3 secs

     total energy              =   -3111.35010182 Ry
     estimated scf accuracy    <       0.00000447 Ry

     iteration # 25     ecut=   120.00 Ry     beta= 0.70
     Davidson diagonalization with overlap
     ethr =  2.54E-09,  avg # of iterations =  3.4

     negative rho (up, down):  3.159E-03 0.000E+00

     total cpu time spent up to now is      268.3 secs

     total energy              =   -3111.35010243 Ry
     estimated scf accuracy    <       0.00000059 Ry

     iteration # 26     ecut=   120.00 Ry     beta= 0.70
     Davidson diagonalization with overlap
     ethr =  3.35E-10,  avg # of iterations =  4.0

     negative rho (up, down):  3.160E-03 0.000E+00

     total cpu time spent up to now is      278.3 secs

     total energy              =   -3111.35010245 Ry
     estimated scf accuracy    <       0.00000043 Ry

     iteration # 27     ecut=   120.00 Ry     beta= 0.70
     Davidson diagonalization with overlap
     ethr =  2.43E-10,  avg # of iterations =  1.4

     negative rho (up, down):  3.160E-03 0.000E+00

     total cpu time spent up to now is      286.4 secs

     total energy              =   -3111.35010247 Ry
     estimated scf accuracy    <       0.00000005 Ry

     iteration # 28     ecut=   120.00 Ry     beta= 0.70
     Davidson diagonalization with overlap
     ethr =  2.61E-11,  avg # of iterations =  4.7

     negative rho (up, down):  3.160E-03 0.000E+00

     total cpu time spent up to now is      298.1 secs

     End of self-consistent calculation

          k = 0.0000 0.0000 0.0000 ( 23847 PWs)   bands (ev):

   -70.7862 -70.7635 -70.7278 -70.7050 -70.7005 -70.7005 -70.7005 -70.7005
   -40.8835 -40.8693 -40.8340 -40.8187 -37.1908 -37.1209 -37.0119 -36.8930
   -36.8930 -36.8729 -36.8729 -36.8591 -36.8591 -36.7998 -36.7883 -36.7475
   -36.7475 -36.7448 -36.7448 -36.6464 -36.6442 -36.6442 -36.6430 -36.6430
   -36.6342 -36.6342 -36.6214 -36.6214 -17.1756 -17.1756 -17.1616 -17.1616
   -17.1603 -17.1586 -17.0197 -17.0167 -17.0023 -17.0023 -16.9877 -16.9877
     8.6171  10.6472  11.4204  12.0184  12.5084  12.6089  12.7680  12.7680
    12.9882  12.9882  13.1987  13.2933  13.3850  13.3850  13.8268  13.8268
    13.9651  13.9651  14.2071  14.2936  14.2936  14.3186  14.3186  14.7755
    14.7755  14.9075  15.3885  15.3885  15.5074  15.5074  15.8274  15.9114
    15.9114  15.9143  15.9143  16.0597  16.0635  16.0635  16.0709  16.1322
    16.1593  16.1593  16.2306  16.2764  16.2764  16.7286  16.7286  16.7436
    16.9876  16.9876  17.2869  17.2869  17.4906  17.4906  17.5136  17.5139
    17.7859  17.7859

          k = 0.0000 0.0000 0.1030 ( 23835 PWs)   bands (ev):

   -70.7851 -70.7659 -70.7255 -70.7061 -70.7005 -70.7005 -70.7005 -70.7005
   -40.8828 -40.8707 -40.8326 -40.8195 -37.1878 -37.1295 -36.9986 -36.8925
   -36.8925 -36.8776 -36.8776 -36.8513 -36.8513 -36.8383 -36.7712 -36.7712
   -36.7527 -36.7215 -36.7215 -36.6512 -36.6512 -36.6510 -36.6391 -36.6391
   -36.6343 -36.6343 -36.6214 -36.6214 -17.1747 -17.1747 -17.1626 -17.1626
   -17.1599 -17.1584 -17.0197 -17.0171 -17.0013 -17.0013 -16.9886 -16.9886
     8.6939  10.2971  11.7118  12.0190  12.4076  12.7813  12.7813  12.7988
    12.9704  12.9704  13.0468  13.3948  13.4116  13.4116  13.8037  13.8037
    13.9478  13.9478  14.1827  14.1827  14.2739  14.4626  14.4626  14.8313
    14.8313  14.9421  15.3148  15.3148  15.4191  15.4191  15.7037  15.8471
    15.9280  15.9280  16.0196  16.0196  16.0553  16.0553  16.0750  16.1281
    16.1639  16.1639  16.2161  16.2161  16.3667  16.7969  16.7969  16.9607
    16.9781  16.9781  17.2789  17.2789  17.4931  17.4931  17.5136  17.5138
    17.7693  17.7693

          k = 0.0000 0.0000 0.2061 ( 23836 PWs)   bands (ev):

   -70.7819 -70.7712 -70.7201 -70.7093 -70.7005 -70.7005 -70.7005 -70.7005
   -40.8807 -40.8738 -40.8292 -40.8218 -37.1790 -37.1473 -36.9670 -36.8909
   -36.8909 -36.8836 -36.8836 -36.8831 -36.8362 -36.8362 -36.7952 -36.7952
   -36.7168 -36.6987 -36.6987 -36.6647 -36.6629 -36.6629 -36.6366 -36.6366
   -36.6347 -36.6347 -36.6214 -36.6214 -17.1723 -17.1723 -17.1653 -17.1653
   -17.1591 -17.1583 -17.0197 -17.0182 -16.9984 -16.9984 -16.9912 -16.9912
     8.9204   9.7615  11.9816  12.0207  12.4577  12.8181  12.8181  12.8581
    12.9258  12.9258  13.0608  13.4119  13.4845  13.4845  13.7116  13.7116
    13.9583  13.9583  14.0858  14.0858  14.4991  14.6534  14.6534  14.9402
    14.9402  15.0273  15.1517  15.1517  15.2770  15.2770  15.4650  15.4905
    15.9602  15.9602  16.0254  16.0254  16.0808  16.0808  16.0861  16.1168
    16.1193  16.1193  16.3262  16.3262  16.6093  16.7996  16.7996  17.0136
    17.0136  17.2410  17.2410  17.3913  17.5136  17.5437  17.5437  17.5622
    17.7184  17.7184

          k = 0.0000 0.0000-0.3091 ( 23860 PWs)   bands (ev):

   -70.7770 -70.7770 -70.7143 -70.7143 -70.7005 -70.7005 -70.7005 -70.7005
   -40.8775 -40.8775 -40.8253 -40.8253 -37.1651 -37.1651 -36.9269 -36.9269
   -36.8880 -36.8880 -36.8880 -36.8880 -36.8172 -36.8172 -36.8172 -36.8172
   -36.6870 -36.6870 -36.6788 -36.6788 -36.6788 -36.6788 -36.6353 -36.6353
   -36.6353 -36.6353 -36.6214 -36.6214 -17.1688 -17.1688 -17.1688 -17.1688
   -17.1585 -17.1585 -17.0192 -17.0192 -16.9947 -16.9947 -16.9947 -16.9947
     9.2844   9.2844  12.0222  12.0222  12.6644  12.6644  12.8702  12.8702
    12.8702  12.8702  13.2875  13.2875  13.5907  13.5907  13.5907  13.5907
    14.0098  14.0098  14.0098  14.0098  14.8627  14.8627  14.8627  14.8627
    14.8711  14.8711  15.1475  15.1475  15.1475  15.1475  15.3160  15.3160
    16.0007  16.0007  16.0007  16.0007  16.0673  16.0673  16.0673  16.0673
    16.1014  16.1014  16.5871  16.5871  16.5871  16.5871  16.9823  16.9823
    17.1484  17.1484  17.1484  17.1484  17.5137  17.5137  17.6359  17.6359
    17.6359  17.6359

          k = 0.0000 0.1925 0.0000 ( 23827 PWs)   bands (ev):

   -70.7827 -70.7599 -70.7278 -70.7133 -70.7042 -70.7005 -70.7005 -70.6958
   -40.8808 -40.8664 -40.8371 -40.8216 -37.1691 -37.0996 -37.0094 -36.8919
   -36.8793 -36.8783 -36.8631 -36.8592 -36.8577 -36.7931 -36.7883 -36.7547
   -36.7475 -36.7456 -36.7449 -36.6608 -36.6555 -36.6517 -36.6474 -36.6442
   -36.6427 -36.6413 -36.6282 -36.6269 -17.1900 -17.1800 -17.1655 -17.1624
   -17.1573 -17.1376 -17.0359 -17.0125 -17.0076 -16.9982 -16.9835 -16.9800
     8.8830  10.8500  11.5986  12.1299  12.5484  12.6034  12.7135  12.8101
    12.8997  13.1523  13.1560  13.3956  13.4393  13.4674  13.7817  13.8800
    13.9654  14.0685  14.2440  14.2820  14.2947  14.3198  14.3660  14.6295
    14.6975  14.7099  15.0234  15.2166  15.2230  15.2782  15.4962  15.5663
    15.7630  15.8566  15.8791  15.9570  16.0025  16.0681  16.1140  16.1925
    16.2172  16.2993  16.3267  16.3555  16.4904  16.6266  16.8011  16.8948
    16.9049  17.0125  17.2891  17.3003  17.3343  17.5236  17.5422  17.5472
    17.5769  17.9170

          k = 0.0000 0.1925 0.1030 ( 23854 PWs)   bands (ev):

   -70.7816 -70.7623 -70.7257 -70.7137 -70.7038 -70.7005 -70.7005 -70.6965
   -40.8801 -40.8678 -40.8356 -40.8224 -37.1663 -37.1088 -36.9959 -36.8915
   -36.8843 -36.8789 -36.8664 -36.8551 -36.8473 -36.8306 -36.7754 -36.7706
   -36.7523 -36.7261 -36.7222 -36.6623 -36.6566 -36.6556 -36.6488 -36.6441
   -36.6436 -36.6427 -36.6280 -36.6269 -17.1885 -17.1791 -17.1665 -17.1658
   -17.1543 -17.1386 -17.0350 -17.0166 -17.0032 -16.9971 -16.9844 -16.9813
     8.9579  10.5143  11.8748  12.1309  12.4537  12.6564  12.7804  12.8291
    12.9357  13.1216  13.1305  13.3670  13.4702  13.5005  13.7761  13.8651
    13.9365  14.0348  14.1359  14.2172  14.3247  14.4426  14.5010  14.6899
    14.7317  14.7590  15.0245  15.1645  15.1819  15.2529  15.5056  15.5551
    15.6787  15.8065  15.8575  15.9267  16.0065  16.0364  16.1189  16.1688
    16.2031  16.2895  16.3047  16.3985  16.4981  16.6838  16.7871  16.9065
    16.9597  17.0942  17.2828  17.3220  17.3341  17.4689  17.5451  17.5714
    17.6239  17.8928

          k = 0.0000 0.1925 0.2061 ( 23848 PWs)   bands (ev):

   -70.7784 -70.7677 -70.7214 -70.7149 -70.7028 -70.7005 -70.7005 -70.6985
   -40.8780 -40.8711 -40.8321 -40.8247 -37.1579 -37.1269 -36.9655 -36.8999
   -36.8876 -36.8777 -36.8719 -36.8653 -36.8398 -36.8328 -36.7989 -36.7938
   -36.7195 -36.7059 -36.6999 -36.6679 -36.6656 -36.6635 -36.6508 -36.6487
   -36.6431 -36.6427 -36.6276 -36.6270 -17.1843 -17.1766 -17.1718 -17.1693
   -17.1498 -17.1412 -17.0321 -17.0223 -16.9969 -16.9943 -16.9870 -16.9850
     9.1788   9.9965  12.1179  12.1384  12.4820  12.6834  12.8030  12.8829
    13.0254  13.0483  13.1131  13.3670  13.5186  13.5504  13.7007  13.7859
    13.9473  14.0171  14.0584  14.1250  14.4492  14.6538  14.6737  14.7849
    14.8336  14.8393  14.9902  15.0766  15.0948  15.1726  15.3488  15.4343
    15.6709  15.8061  15.8561  15.8932  15.9194  16.0227  16.0544  16.0951
    16.1988  16.2940  16.3271  16.5041  16.5571  16.6858  16.7342  16.8205
    17.0742  17.2448  17.2644  17.3433  17.3925  17.5119  17.5384  17.6162
    17.6222  17.8234

          k = 0.0000 0.1925-0.3091 ( 23854 PWs)   bands (ev):

   -70.7735 -70.7735 -70.7174 -70.7174 -70.7009 -70.7009 -70.7005 -70.7005
   -40.8749 -40.8749 -40.8281 -40.8281 -37.1443 -37.1443 -36.9295 -36.9295
   -36.8820 -36.8820 -36.8755 -36.8755 -36.8208 -36.8208 -36.8148 -36.8148
   -36.6984 -36.6984 -36.6807 -36.6807 -36.6732 -36.6732 -36.6507 -36.6507
   -36.6428 -36.6428 -36.6272 -36.6272 -17.1783 -17.1783 -17.1730 -17.1730
   -17.1452 -17.1452 -17.0277 -17.0277 -16.9906 -16.9906 -16.9905 -16.9905
     9.5332   9.5332  12.1417  12.1417  12.6254  12.6254  12.8919  12.8919
    12.9613  12.9613  13.2861  13.2861  13.5864  13.5864  13.6631  13.6631
    14.0004  14.0004  14.0560  14.0560  14.6713  14.6713  14.8182  14.8182
    14.8836  14.8836  14.9543  14.9543  15.0941  15.0941  15.2738  15.2738
    15.7853  15.7853  15.8452  15.8452  15.9245  15.9245  16.0532  16.0532
    16.2476  16.2476  16.4863  16.4863  16.6488  16.6488  16.6855  16.6855
    17.1765  17.1765  17.3488  17.3488  17.4711  17.4711  17.5376  17.5376
    17.7221  17.7221

          k = 0.0000 0.3849 0.0000 ( 23870 PWs)   bands (ev):

   -70.7740 -70.7507 -70.7278 -70.7255 -70.7134 -70.7006 -70.7005 -70.6924
   -40.8736 -40.8588 -40.8449 -40.8293 -37.1171 -37.0485 -37.0041 -36.9074
   -36.8768 -36.8693 -36.8593 -36.8451 -36.8170 -36.7885 -36.7836 -36.7650
   -36.7490 -36.7475 -36.7458 -36.7166 -36.6887 -36.6879 -36.6745 -36.6542
   -36.6441 -36.6328 -36.6325 -36.6289 -17.1987 -17.1883 -17.1729 -17.1714
   -17.1472 -17.1099 -17.0615 -17.0193 -17.0031 -16.9904 -16.9756 -16.9741
     9.6314  11.3543  12.0180  12.0458  12.4021  12.5940  12.6499  12.9351
    13.0015  13.0727  13.5543  13.5693  13.5901  13.6365  13.7321  13.9205
    14.0017  14.1412  14.2435  14.2773  14.3253  14.3678  14.4099  14.4423
    14.4931  14.5395  14.5448  14.7681  14.7836  14.8839  14.9690  15.0717
    15.0969  15.3985  15.7125  15.9936  16.0842  16.1400  16.1482  16.1927
    16.2029  16.3315  16.4107  16.6260  16.6397  16.7394  16.7441  16.8442
    16.8546  17.0216  17.0259  17.3377  17.3924  17.6182  17.6748  17.6914
    17.7346  18.2384

          k = 0.0000 0.3849 0.1030 ( 23871 PWs)   bands (ev):

   -70.7729 -70.7532 -70.7272 -70.7255 -70.7116 -70.7005 -70.7005 -70.6934
   -40.8730 -40.8607 -40.8429 -40.8300 -37.1146 -37.0602 -36.9896 -36.9103
   -36.8793 -36.8612 -36.8579 -36.8456 -36.8159 -36.8155 -36.7850 -36.7674
   -36.7560 -36.7372 -36.7262 -36.7134 -36.6892 -36.6845 -36.6737 -36.6573
   -36.6473 -36.6362 -36.6317 -36.6289 -17.1969 -17.1873 -17.1740 -17.1729
   -17.1459 -17.1140 -17.0575 -17.0222 -17.0002 -16.9893 -16.9765 -16.9756
     9.7001  11.0863  11.9777  12.3202  12.3557  12.6108  12.6784  12.9385
    12.9643  13.1402  13.4622  13.4880  13.6562  13.7139  13.7391  13.9070
    13.9902  14.0975  14.2062  14.2728  14.2962  14.3017  14.3881  14.4832
    14.5465  14.5937  14.6562  14.7701  14.7952  14.9424  14.9692  15.0499
    15.1195  15.4173  15.7124  15.8928  16.0191  16.0598  16.1011  16.1546
    16.2130  16.3767  16.3902  16.6331  16.6474  16.7099  16.7301  16.8460
    16.8782  17.0671  17.1721  17.2885  17.3705  17.4867  17.6475  17.7180
    17.9654  18.1932

          k = 0.0000 0.3849 0.2061 ( 23859 PWs)   bands (ev):

   -70.7697 -70.7587 -70.7263 -70.7256 -70.7069 -70.7005 -70.7005 -70.6966
   -40.8711 -40.8644 -40.8390 -40.8320 -37.1072 -37.0788 -36.9634 -36.9199
   -36.8771 -36.8543 -36.8485 -36.8473 -36.8426 -36.8104 -36.8064 -36.7860
   -36.7398 -36.7303 -36.7087 -36.6995 -36.6915 -36.6745 -36.6706 -36.6665
   -36.6550 -36.6460 -36.6305 -36.6292 -17.1917 -17.1847 -17.1776 -17.1770
   -17.1412 -17.1232 -17.0484 -17.0291 -16.9938 -16.9865 -16.9801 -16.9791
     9.9019  10.6378  12.0307  12.2455  12.5896  12.6550  12.7440  12.8907
    13.0480  13.1957  13.3220  13.3697  13.7414  13.7510  13.8035  13.8933
    13.9397  14.0396  14.1770  14.1919  14.2398  14.3191  14.4490  14.5256
    14.5793  14.6193  14.7182  14.8439  14.8523  14.9637  14.9954  15.0474
    15.2558  15.4991  15.6952  15.7632  15.8551  15.9310  15.9499  16.0056
    16.2563  16.3508  16.4399  16.6238  16.6813  16.7001  16.7088  16.8470
    16.9463  17.1313  17.1689  17.3070  17.3793  17.5163  17.6414  17.8147
    17.9854  18.0873

          k = 0.0000 0.3849-0.3091 ( 23842 PWs)   bands (ev):

   -70.7647 -70.7647 -70.7258 -70.7258 -70.7014 -70.7014 -70.7005 -70.7005
   -40.8681 -40.8681 -40.8351 -40.8351 -37.0951 -37.0951 -36.9380 -36.9380
   -36.8665 -36.8665 -36.8503 -36.8503 -36.8273 -36.8273 -36.8007 -36.8007
   -36.7320 -36.7320 -36.6971 -36.6971 -36.6813 -36.6813 -36.6640 -36.6640
   -36.6601 -36.6601 -36.6296 -36.6296 -17.1846 -17.1846 -17.1809 -17.1809
   -17.1331 -17.1331 -17.0383 -17.0383 -16.9866 -16.9866 -16.9827 -16.9827
    10.2234  10.2234  12.1264  12.1264  12.6751  12.6751  12.8339  12.8339
    13.1742  13.1742  13.2646  13.2646  13.7738  13.7738  13.8427  13.8427
    13.9785  13.9785  14.1933  14.1933  14.2478  14.2478  14.5077  14.5077
    14.6010  14.6010  14.7864  14.7864  14.9518  14.9518  15.0249  15.0249
    15.5118  15.5118  15.6584  15.6584  15.7954  15.7954  15.8958  15.8958
    16.3149  16.3149  16.5414  16.5414  16.6586  16.6586  16.7969  16.7969
    17.0498  17.0498  17.2125  17.2125  17.5377  17.5377  17.7505  17.7505
    17.9557  17.9558

          k = 0.0000-0.5774 0.0000 ( 23836 PWs)   bands (ev):

   -70.7680 -70.7436 -70.7326 -70.7278 -70.7206 -70.7006 -70.7005 -70.6913
   -40.8678 -40.8526 -40.8510 -40.8354 -37.0831 -37.0125 -37.0013 -36.9334
   -36.8718 -36.8633 -36.8593 -36.8209 -36.7885 -36.7838 -36.7789 -36.7649
   -36.7638 -36.7475 -36.7475 -36.7462 -36.7263 -36.7022 -36.6971 -36.6581
   -36.6441 -36.6332 -36.6291 -36.6290 -17.1999 -17.1922 -17.1770 -17.1764
   -17.1408 -17.0969 -17.0742 -17.0263 -16.9975 -16.9868 -16.9735 -16.9719
    10.4807  11.0609  11.9964  12.1831  12.3519  12.6462  12.8040  12.8768
    13.0149  13.1956  13.6202  13.6445  13.7038  13.8992  13.9574  13.9638
    13.9841  14.0194  14.1160  14.2834  14.3308  14.3875  14.3906  14.4038
    14.4433  14.4813  14.4991  14.5400  14.5421  14.5582  14.6840  14.7416
    14.7728  15.0587  15.7514  16.0517  16.0675  16.1188  16.1480  16.2202
    16.2488  16.2903  16.3043  16.5633  16.6432  16.8288  16.9046  16.9567
    17.0312  17.0587  17.1276  17.1476  17.4119  17.5377  17.5618  17.6724
    17.8522  18.2036

          k = 0.0000-0.5774 0.1030 ( 23876 PWs)   bands (ev):

   -70.7668 -70.7461 -70.7325 -70.7300 -70.7159 -70.7006 -70.7005 -70.6925
   -40.8673 -40.8562 -40.8475 -40.8360 -37.0809 -37.0294 -36.9831 -36.9344
   -36.8730 -36.8570 -36.8567 -36.8236 -36.8063 -36.7906 -36.7785 -36.7649
   -36.7638 -36.7592 -36.7372 -36.7306 -36.7265 -36.6944 -36.6931 -36.6613
   -36.6477 -36.6326 -36.6322 -36.6292 -17.1980 -17.1912 -17.1775 -17.1775
   -17.1405 -17.1052 -17.0661 -17.0276 -16.9961 -16.9857 -16.9751 -16.9728
    10.5371  11.1030  11.7527  12.0836  12.5529  12.6612  12.7913  12.8766
    13.0499  13.2021  13.5841  13.6409  13.6969  13.9345  13.9548  13.9770
    14.0023  14.0026  14.0822  14.2100  14.2851  14.3641  14.3985  14.4124
    14.4239  14.4418  14.4907  14.5167  14.6493  14.6688  14.6811  14.7596
    14.8791  15.1266  15.7520  15.9747  16.0012  16.0912  16.1140  16.1389
    16.2065  16.2098  16.4856  16.6362  16.6867  16.7111  16.8018  16.8615
    16.9901  17.1620  17.1939  17.2778  17.3380  17.4996  17.7084  17.7412
    17.8442  18.1927

          k = 0.0000-0.5774 0.2061 ( 23902 PWs)   bands (ev):

   -70.7635 -70.7519 -70.7324 -70.7316 -70.7085 -70.7005 -70.7005 -70.6960
   -40.8658 -40.8600 -40.8435 -40.8376 -37.0742 -37.0481 -36.9621 -36.9381
   -36.8693 -36.8504 -36.8434 -36.8332 -36.8310 -36.8078 -36.7770 -36.7684
   -36.7642 -36.7638 -36.7310 -36.7270 -36.7070 -36.6822 -36.6772 -36.6709
   -36.6566 -36.6428 -36.6308 -36.6294 -17.1928 -17.1885 -17.1806 -17.1803
   -17.1377 -17.1184 -17.0531 -17.0325 -16.9918 -16.9828 -16.9795 -16.9754
    10.7005  11.1568  11.4798  11.8437  12.6625  12.7535  12.8048  12.8995
    13.1508  13.2501  13.4788  13.4847  13.7815  13.9330  13.9331  13.9516
    13.9746  14.0212  14.1251  14.1571  14.2923  14.3773  14.3844  14.3866
    14.4251  14.4513  14.4539  14.5022  14.6419  14.6622  14.8012  14.8039
    15.1671  15.3317  15.7285  15.7872  15.8798  15.9379  15.9889  16.0522
    16.2071  16.2291  16.5812  16.5856  16.7077  16.7485  16.8131  16.8171
    16.8344  17.1789  17.2697  17.3386  17.4734  17.4924  17.7818  17.8885
    17.8906  18.0866

          k = 0.0000-0.5774-0.3091 ( 23916 PWs)   bands (ev):

   -70.7582 -70.7582 -70.7322 -70.7322 -70.7015 -70.7015 -70.7005 -70.7005
   -40.8633 -40.8633 -40.8401 -40.8401 -37.0632 -37.0632 -36.9465 -36.9465
   -36.8560 -36.8560 -36.8410 -36.8410 -36.8265 -36.8265 -36.7740 -36.7740
   -36.7640 -36.7640 -36.7282 -36.7282 -36.6864 -36.6864 -36.6688 -36.6688
   -36.6585 -36.6585 -36.6299 -36.6299 -17.1860 -17.1860 -17.1846 -17.1846
   -17.1301 -17.1301 -17.0413 -17.0413 -16.9857 -16.9857 -16.9791 -16.9791
    10.9480  10.9480  11.5841  11.5841  12.7050  12.7050  12.9047  12.9047
    13.3046  13.3046  13.3499  13.3499  13.8701  13.8701  13.9300  13.9300
    13.9567  13.9567  14.2022  14.2022  14.3516  14.3516  14.3763  14.3763
    14.4062  14.4062  14.4817  14.4817  14.6447  14.6447  14.8354  14.8354
    15.5005  15.5005  15.5832  15.5832  15.8335  15.8335  15.9629  15.9629
    16.2282  16.2282  16.6273  16.6273  16.6599  16.6599  16.8183  16.8183
    16.9910  16.9910  17.3369  17.3369  17.6561  17.6561  17.6794  17.6794
    18.0459  18.0459

          k = 0.1667 0.2887 0.0000 ( 23854 PWs)   bands (ev):

   -70.7765 -70.7534 -70.7278 -70.7223 -70.7107 -70.7005 -70.7005 -70.6930
   -40.8757 -40.8610 -40.8426 -40.8271 -37.1310 -37.0623 -37.0054 -36.8966
   -36.8910 -36.8673 -36.8601 -36.8515 -36.8276 -36.7885 -36.7841 -36.7633
   -36.7486 -36.7467 -36.7464 -36.7061 -36.6853 -36.6566 -36.6511 -36.6509
   -36.6454 -36.6423 -36.6404 -36.6347 -17.1960 -17.1889 -17.1730 -17.1687
   -17.1474 -17.1147 -17.0564 -17.0184 -17.0057 -16.9908 -16.9763 -16.9757
     9.3917  11.2210  11.9105  12.2294  12.5133  12.5393  12.6031  12.8660
    12.9982  13.0168  13.3707  13.5184  13.5796  13.6496  13.7139  13.9102
    13.9478  14.1606  14.2125  14.2922  14.3370  14.4133  14.4363  14.4417
    14.5249  14.5848  14.6297  14.7852  14.9211  15.0293  15.1381  15.2895
    15.3362  15.4888  15.7583  15.8320  15.9351  16.0812  16.1778  16.2295
    16.2344  16.3205  16.5245  16.5470  16.5901  16.6568  16.7650  16.9183
    16.9445  17.0935  17.2222  17.2826  17.2948  17.3072  17.7388  17.7859
    17.7934  17.8684

          k = 0.1667 0.2887 0.1030 ( 23883 PWs)   bands (ev):

   -70.7754 -70.7559 -70.7266 -70.7224 -70.7095 -70.7005 -70.7005 -70.6940
   -40.8751 -40.8627 -40.8409 -40.8278 -37.1284 -37.0730 -36.9914 -36.9017
   -36.8896 -36.8620 -36.8593 -36.8508 -36.8255 -36.8197 -36.7805 -36.7715
   -36.7531 -36.7320 -36.7261 -36.7049 -36.6831 -36.6587 -36.6553 -36.6495
   -36.6468 -36.6428 -36.6403 -36.6372 -17.1942 -17.1879 -17.1742 -17.1704
   -17.1459 -17.1178 -17.0534 -17.0218 -17.0023 -16.9897 -16.9778 -16.9767
     9.4626  10.9166  12.1505  12.2310  12.5112  12.5257  12.5824  12.9784
    12.9924  13.0318  13.3224  13.4657  13.6111  13.6547  13.7263  13.9180
    13.9427  14.0880  14.1792  14.2402  14.3487  14.3772  14.4721  14.4810
    14.5872  14.6227  14.7286  14.8434  14.8978  15.0144  15.1720  15.2738
    15.3104  15.4989  15.7378  15.7721  15.8975  16.0415  16.1494  16.1814
    16.1970  16.3101  16.4154  16.6140  16.6289  16.7083  16.7371  16.9110
    16.9809  17.1454  17.2341  17.2836  17.3276  17.3403  17.6130  17.7590
    17.8273  17.9290

          k = 0.1667 0.2887 0.2061 ( 23875 PWs)   bands (ev):

   -70.7722 -70.7613 -70.7246 -70.7227 -70.7059 -70.7005 -70.7005 -70.6970
   -40.8731 -40.8663 -40.8371 -40.8299 -37.1207 -37.0915 -36.9639 -36.9145
   -36.8847 -36.8576 -36.8573 -36.8494 -36.8428 -36.8187 -36.8035 -36.7903
   -36.7324 -36.7208 -36.7053 -36.6977 -36.6759 -36.6656 -36.6636 -36.6515
   -36.6490 -36.6467 -36.6402 -36.6397 -17.1893 -17.1852 -17.1771 -17.1753
   -17.1412 -17.1252 -17.0460 -17.0287 -16.9957 -16.9869 -16.9821 -16.9793
     9.6713  10.4382  12.2428  12.3346  12.4737  12.5504  12.7065  12.9672
    13.0616  13.1410  13.2273  13.3666  13.6547  13.6697  13.7316  13.8972
    13.9703  14.0183  14.1272  14.1457  14.3251  14.4164  14.5554  14.5763
    14.6537  14.6573  14.8640  14.8675  14.9484  14.9885  15.1410  15.2423
    15.3542  15.5377  15.6604  15.7623  15.8360  15.9135  15.9702  16.0160
    16.1880  16.2950  16.4898  16.6062  16.6636  16.6848  16.7273  16.8491
    17.0938  17.2272  17.2638  17.3164  17.3722  17.4418  17.5390  17.6763
    17.7843  17.9385

          k = 0.1667 0.2887-0.3091 ( 23854 PWs)   bands (ev):

   -70.7672 -70.7672 -70.7234 -70.7234 -70.7013 -70.7013 -70.7005 -70.7005
   -40.8701 -40.8701 -40.8331 -40.8331 -37.1082 -37.1082 -36.9357 -36.9357
   -36.8736 -36.8736 -36.8554 -36.8554 -36.8251 -36.8251 -36.8067 -36.8067
   -36.7220 -36.7220 -36.6908 -36.6908 -36.6724 -36.6724 -36.6633 -36.6633
   -36.6483 -36.6483 -36.6400 -36.6400 -17.1830 -17.1830 -17.1806 -17.1806
   -17.1337 -17.1337 -17.0372 -17.0372 -16.9886 -16.9886 -16.9829 -16.9829
    10.0050  10.0050  12.2795  12.2795  12.5477  12.5477  12.8645  12.8645
    13.1287  13.1287  13.2717  13.2717  13.6663  13.6663  13.7936  13.7936
    14.0105  14.0105  14.1165  14.1165  14.3724  14.3724  14.6162  14.6162
    14.6659  14.6659  14.9155  14.9155  14.9552  14.9552  15.1521  15.1521
    15.5083  15.5083  15.7504  15.7504  15.7699  15.7699  15.8881  15.8881
    16.2470  16.2470  16.5679  16.5679  16.6658  16.6658  16.7612  16.7612
    17.2097  17.2097  17.2822  17.2822  17.4684  17.4684  17.5905  17.5905
    17.8118  17.8118

          k = 0.1667 0.4811 0.0000 ( 23894 PWs)   bands (ev):

   -70.7680 -70.7436 -70.7326 -70.7278 -70.7206 -70.7006 -70.7005 -70.6913
   -40.8678 -40.8526 -40.8511 -40.8355 -37.0784 -37.0093 -37.0013 -36.9359
   -36.8909 -36.8703 -36.8619 -36.8119 -36.7888 -36.7855 -36.7781 -36.7664
   -36.7647 -36.7517 -36.7504 -36.7404 -36.7000 -36.6946 -36.6812 -36.6548
   -36.6474 -36.6470 -36.6461 -36.6294 -17.1995 -17.1940 -17.1808 -17.1779
   -17.1322 -17.0901 -17.0795 -17.0343 -16.9963 -16.9834 -16.9778 -16.9676
    10.2861  11.5113  11.9153  12.3075  12.3239  12.6041  12.6522  12.8360
    12.8796  13.1321  13.6513  13.7012  13.7638  13.8265  13.8402  13.9085
    13.9102  14.0349  14.1870  14.2034  14.2342  14.3117  14.4058  14.4163
    14.4856  14.4999  14.5275  14.5480  14.6173  14.7070  14.8336  14.8516
    14.9838  15.1266  15.6558  15.7821  15.9407  15.9521  16.0815  16.1496
    16.3899  16.4228  16.4558  16.6021  16.6767  16.7218  16.8228  16.9505
    17.1268  17.1274  17.2049  17.2227  17.3217  17.4602  17.7234  17.7893
    17.9202  18.0263

          k = 0.1667 0.4811 0.1030 ( 23888 PWs)   bands (ev):

   -70.7668 -70.7461 -70.7325 -70.7300 -70.7159 -70.7006 -70.7005 -70.6925
   -40.8672 -40.8561 -40.8475 -40.8360 -37.0762 -37.0265 -36.9834 -36.9374
   -36.8888 -36.8657 -36.8594 -36.8153 -36.8058 -36.7910 -36.7820 -36.7748
   -36.7599 -36.7549 -36.7336 -36.7297 -36.6961 -36.6923 -36.6798 -36.6582
   -36.6506 -36.6470 -36.6451 -36.6326 -17.1981 -17.1925 -17.1821 -17.1778
   -17.1325 -17.1011 -17.0687 -17.0348 -16.9957 -16.9823 -16.9793 -16.9686
    10.3473  11.4667  11.7407  12.2499  12.5414  12.5538  12.6665  12.8189
    12.9592  13.1593  13.5937  13.6507  13.7838  13.8095  13.8861  13.9005
    13.9549  14.0401  14.0889  14.1537  14.2495  14.2676  14.3625  14.4399
    14.4530  14.5096  14.5380  14.5860  14.6464  14.7927  14.8521  14.9186
    15.0241  15.1641  15.6506  15.7497  15.8434  15.9771  16.0671  16.1127
    16.2610  16.3400  16.5643  16.6112  16.6873  16.6977  16.8384  16.9734
    17.0826  17.1388  17.1955  17.2749  17.3330  17.4467  17.6577  17.9020
    17.9558  18.0034

          k = 0.1667 0.4811 0.2061 ( 23892 PWs)   bands (ev):

   -70.7635 -70.7519 -70.7324 -70.7316 -70.7085 -70.7006 -70.7005 -70.6960
   -40.8657 -40.8600 -40.8435 -40.8376 -37.0698 -37.0445 -36.9643 -36.9420
   -36.8800 -36.8552 -36.8528 -36.8351 -36.8219 -36.8089 -36.7825 -36.7793
   -36.7582 -36.7566 -36.7164 -36.7128 -36.6929 -36.6799 -36.6742 -36.6674
   -36.6578 -36.6487 -36.6445 -36.6404 -17.1946 -17.1885 -17.1854 -17.1790
   -17.1314 -17.1147 -17.0554 -17.0375 -16.9932 -16.9833 -16.9792 -16.9714
    10.5263  11.1610  11.7629  12.1140  12.5321  12.6288  12.7736  12.8279
    13.1145  13.2293  13.4682  13.5161  13.8055  13.8398  13.8881  13.9152
    13.9620  14.0297  14.0505  14.1283  14.2143  14.2784  14.3356  14.3698
    14.4264  14.4807  14.5481  14.6027  14.7210  14.8396  14.9582  14.9900
    15.2103  15.3174  15.6252  15.6500  15.7137  15.8654  16.0121  16.0742
    16.1418  16.2313  16.5887  16.6385  16.6696  16.7452  16.8628  16.9794
    17.0593  17.1379  17.2396  17.2915  17.3293  17.4764  17.6748  17.8302
    17.9733  18.1267

          k = 0.1667 0.4811-0.3091 ( 23908 PWs)   bands (ev):

   -70.7582 -70.7582 -70.7322 -70.7322 -70.7015 -70.7015 -70.7005 -70.7005
   -40.8633 -40.8633 -40.8402 -40.8402 -37.0591 -37.0591 -36.9505 -36.9505
   -36.8619 -36.8619 -36.8470 -36.8470 -36.8239 -36.8239 -36.7815 -36.7815
   -36.7574 -36.7574 -36.7085 -36.7085 -36.6815 -36.6815 -36.6687 -36.6687
   -36.6591 -36.6591 -36.6439 -36.6439 -17.1901 -17.1901 -17.1829 -17.1829
   -17.1255 -17.1255 -17.0445 -17.0445 -16.9885 -16.9885 -16.9752 -16.9752
    10.8083  10.8083  11.9229  11.9229  12.5853  12.5853  12.8288  12.8288
    13.2930  13.2930  13.3685  13.3685  13.8363  13.8363  13.8806  13.8806
    14.0045  14.0045  14.0857  14.0857  14.2447  14.2447  14.3598  14.3598
    14.4252  14.4252  14.5648  14.5648  14.7961  14.7961  15.0269  15.0269
    15.4246  15.4246  15.5718  15.5718  15.6828  15.6828  15.9958  15.9958
    16.1683  16.1683  16.6235  16.6235  16.7088  16.7088  16.9214  16.9214
    17.0967  17.0967  17.2708  17.2708  17.4318  17.4318  17.7492  17.7492
    18.0021  18.0021

          k = 0.3333 0.5774 0.0000 ( 23934 PWs)   bands (ev):

   -70.7639 -70.7371 -70.7371 -70.7278 -70.7271 -70.7006 -70.7006 -70.6908
   -40.8595 -40.8595 -40.8440 -40.8440 -37.0432 -36.9999 -36.9692 -36.9692
   -36.9219 -36.8673 -36.8673 -36.7902 -36.7902 -36.7794 -36.7794 -36.7711
   -36.7626 -36.7626 -36.7579 -36.6968 -36.6968 -36.6954 -36.6816 -36.6816
   -36.6743 -36.6507 -36.6507 -36.6280 -17.2036 -17.1873 -17.1873 -17.1861
   -17.1061 -17.1061 -17.0612 -17.0612 -16.9863 -16.9863 -16.9789 -16.9631
    10.8815  11.6218  11.6218  12.3695  12.4058  12.6301  12.6301  12.7338
    12.7338  13.0873  13.7830  13.7830  13.8571  13.8571  13.9715  13.9715
    13.9740  13.9770  14.0160  14.0160  14.1076  14.2098  14.2555  14.2555
    14.5160  14.5160  14.5282  14.5848  14.5848  14.8855  14.8855  14.9425
    14.9781  15.0581  15.6610  15.7038  15.7038  15.7453  15.7453  16.0385
    16.5534  16.5534  16.5738  16.5738  16.7888  16.7888  16.9445  16.9445
    16.9700  17.1390  17.3132  17.3846  17.3846  17.4000  17.7704  17.7705
    17.8193  17.9664

          k = 0.3333 0.5774 0.1030 ( 23874 PWs)   bands (ev):

   -70.7627 -70.7371 -70.7371 -70.7369 -70.7180 -70.7006 -70.7006 -70.6921
   -40.8595 -40.8595 -40.8440 -40.8440 -37.0414 -37.0052 -36.9694 -36.9694
   -36.9128 -36.8642 -36.8642 -36.7973 -36.7951 -36.7951 -36.7872 -36.7872
   -36.7531 -36.7531 -36.7354 -36.6959 -36.6942 -36.6942 -36.6813 -36.6813
   -36.6724 -36.6532 -36.6532 -36.6313 -17.2025 -17.1873 -17.1862 -17.1862
   -17.1099 -17.1099 -17.0578 -17.0578 -16.9872 -16.9872 -16.9777 -16.9641
    10.9321  11.6627  11.6627  11.9938  12.5120  12.5120  12.7839  12.8042
    12.8042  13.1213  13.7463  13.7463  13.8396  13.9075  13.9075  13.9258
    13.9601  13.9601  14.0189  14.0189  14.1465  14.1869  14.1931  14.1931
    14.4639  14.4639  14.5632  14.7217  14.7217  14.8812  14.8914  14.8914
    15.0739  15.1413  15.6172  15.6172  15.6317  15.8290  15.8290  15.9790
    16.3952  16.3952  16.6309  16.6309  16.7982  16.7982  16.9606  16.9929
    16.9929  17.1681  17.2190  17.3737  17.3737  17.4097  17.7658  17.7658
    17.9606  17.9607

          k = 0.3333 0.5774 0.2061 ( 23913 PWs)   bands (ev):

   -70.7591 -70.7457 -70.7371 -70.7371 -70.7092 -70.7006 -70.7006 -70.6957
   -40.8596 -40.8596 -40.8439 -40.8439 -37.0361 -37.0164 -36.9698 -36.9698
   -36.8906 -36.8562 -36.8562 -36.8300 -36.8118 -36.8118 -36.7884 -36.7884
   -36.7439 -36.7439 -36.7145 -36.6979 -36.6884 -36.6884 -36.6788 -36.6788
   -36.6656 -36.6604 -36.6604 -36.6405 -17.1994 -17.1907 -17.1836 -17.1836
   -17.1166 -17.1166 -17.0518 -17.0518 -16.9891 -16.9891 -16.9747 -16.9668
    11.0807  11.6295  11.7682  11.7682  12.3329  12.3329  12.8632  12.8632
    13.1500  13.2188  13.6290  13.7126  13.7126  13.7748  13.9024  13.9024
    13.9371  13.9371  14.0781  14.0781  14.1475  14.1516  14.1582  14.1582
    14.4172  14.4172  14.6428  14.7503  14.7503  14.8105  15.0465  15.0465
    15.2231  15.3327  15.4982  15.4982  15.5524  15.8203  15.9094  15.9094
    16.2259  16.2259  16.6359  16.6359  16.8105  16.8105  16.9561  17.0741
    17.0741  17.0770  17.2495  17.3350  17.3350  17.3992  17.7756  17.7756
    17.9191  17.9191

          k = 0.3333 0.5774-0.3091 ( 23952 PWs)   bands (ev):

   -70.7533 -70.7533 -70.7371 -70.7371 -70.7016 -70.7016 -70.7006 -70.7006
   -40.8597 -40.8597 -40.8438 -40.8438 -37.0275 -37.0275 -36.9700 -36.9700
   -36.8619 -36.8619 -36.8500 -36.8500 -36.8215 -36.8215 -36.7885 -36.7885
   -36.7409 -36.7409 -36.7029 -36.7029 -36.6861 -36.6861 -36.6705 -36.6705
   -36.6704 -36.6704 -36.6536 -36.6536 -17.1951 -17.1951 -17.1822 -17.1822
   -17.1198 -17.1198 -17.0490 -17.0490 -16.9901 -16.9901 -16.9707 -16.9707
    11.3183  11.3183  11.8481  11.8481  12.2264  12.2264  12.8823  12.8823
    13.3416  13.3416  13.5591  13.5591  13.6993  13.6993  13.8807  13.8807
    13.9269  13.9269  14.1239  14.1239  14.1388  14.1388  14.1646  14.1646
    14.3894  14.3894  14.7277  14.7277  14.7302  14.7302  15.1903  15.1903
    15.3750  15.3750  15.3967  15.3967  15.6101  15.6101  15.9404  15.9404
    16.1577  16.1577  16.6338  16.6338  16.8154  16.8154  16.9890  16.9890
    17.1180  17.1180  17.3022  17.3022  17.3380  17.3381  17.7860  17.7860
    17.8917  17.8917

     the Fermi energy is    16.1664 ev

!    total energy              =   -3111.35010248 Ry
     estimated scf accuracy    <          6.0E-10 Ry
     smearing contrib. (-TS)   =       0.00009684 Ry
     internal energy E=F+TS    =   -3111.35019931 Ry

     The total energy is F=E-TS. E is the sum of the following terms:
     one-electron contribution =   -1208.34878241 Ry
     hartree contribution      =     698.26114222 Ry
     xc contribution           =    -349.40688067 Ry
     ewald contribution        =   -1642.60130586 Ry
     one-center paw contrib.   =    -609.25437260 Ry

     convergence has been achieved in  28 iterations

     negative rho (up, down):  3.160E-03 0.000E+00

     Forces acting on atoms (cartesian axes, Ry/au):

     atom    1 type  1   force =    -0.01337589    0.00772257   -0.00000000
     atom    2 type  1   force =     0.01337589   -0.00772257    0.00000000
     atom    3 type  1   force =     0.00000000    0.01544515    0.00000000
     atom    4 type  1   force =     0.01337589    0.00772257    0.00000000
     atom    5 type  1   force =     0.00000000   -0.01544515    0.00000000
     atom    6 type  1   force =    -0.01337589   -0.00772257   -0.00000000
     atom    7 type  1   force =     0.00000000    0.00000000   -0.00000000
     atom    8 type  1   force =    -0.00000000    0.00000000   -0.00000000
     atom    9 type  2   force =     0.00000000    0.00000000   -0.01102264
     atom   10 type  2   force =     0.00000000    0.00000000   -0.01102264
     atom   11 type  2   force =     0.00000000   -0.00000000    0.01102264
     atom   12 type  2   force =     0.00000000    0.00000000    0.01102264

     Total force =     0.043787     Total SCF correction =     0.000030


     Computing stress (Cartesian axis) and pressure


     negative rho (up, down):  3.160E-03 0.000E+00
          total   stress  (Ry/bohr**3)                   (kbar)     P=     -153.23
  -0.00112695  -0.00000000   0.00000000         -165.78       -0.00        0.00
  -0.00000000  -0.00112695   0.00000000           -0.00     -165.78        0.00
   0.00000000   0.00000000  -0.00087104            0.00        0.00     -128.13


     Writing all to output data dir ./FeAl.save/ :
     XML data file, charge density, pseudopotentials, collected wavefunctions

     init_run     :      5.41s CPU      5.57s WALL (       1 calls)
     electrons    :    287.26s CPU    292.43s WALL (       1 calls)
     forces       :      1.47s CPU      1.49s WALL (       1 calls)
     stress       :      5.65s CPU      5.70s WALL (       1 calls)

     Called by init_run:
     wfcinit      :      3.93s CPU      4.05s WALL (       1 calls)
     potinit      :      0.49s CPU      0.51s WALL (       1 calls)
     hinit0       :      0.67s CPU      0.68s WALL (       1 calls)

     Called by electrons:
     c_bands      :    247.48s CPU    251.23s WALL (      28 calls)
     sum_band     :     31.68s CPU     32.43s WALL (      28 calls)
     v_of_rho     :      0.47s CPU      0.54s WALL (      29 calls)
     newd         :      2.61s CPU      2.87s WALL (      29 calls)
     PAW_pot      :      5.07s CPU      5.29s WALL (      29 calls)
     mix_rho      :      0.15s CPU      0.15s WALL (      28 calls)

     Called by c_bands:
     init_us_2    :      2.26s CPU      2.29s WALL (    1652 calls)
     cegterg      :    236.31s CPU    239.82s WALL (     784 calls)

     Called by *egterg:
     cdiaghg      :     36.17s CPU     36.29s WALL (    2983 calls)
     h_psi        :    128.32s CPU    130.46s WALL (    3011 calls)
     s_psi        :     12.92s CPU     13.09s WALL (    3011 calls)
     g_psi        :      0.65s CPU      0.65s WALL (    2199 calls)

     Called by h_psi:
     h_psi:calbec :     18.82s CPU     18.92s WALL (    3011 calls)
     vloc_psi     :     95.57s CPU     97.18s WALL (    3011 calls)
     add_vuspsi   :     13.24s CPU     13.31s WALL (    3011 calls)

     General routines
     calbec       :     30.60s CPU     30.74s WALL (    4271 calls)
     fft          :      0.91s CPU      1.00s WALL (     400 calls)
     ffts         :      0.33s CPU      0.34s WALL (      57 calls)
     fftw         :     99.70s CPU    101.24s WALL (  507338 calls)
     interpolate  :      0.34s CPU      0.36s WALL (      29 calls)

     Parallel routines

     PWSCF        :    300.77s CPU    318.55s WALL


   This run was terminated on:  15: 8:42  27Oct2025            

=------------------------------------------------------------------------------=
   JOB DONE.
=------------------------------------------------------------------------------=
Note: The following floating-point exceptions are signalling: IEEE_UNDERFLOW_FLAG IEEE_DENORMAL
Note: The following floating-point exceptions are signalling: IEEE_UNDERFLOW_FLAG IEEE_DENORMAL
Note: The following floating-point exceptions are signalling: IEEE_UNDERFLOW_FLAG IEEE_DENORMAL
Note: The following floating-point exceptions are signalling: IEEE_UNDERFLOW_FLAG IEEE_DENORMAL
Note: The following floating-point exceptions are signalling: IEEE_UNDERFLOW_FLAG IEEE_DENORMAL
Note: The following floating-point exceptions are signalling: IEEE_UNDERFLOW_FLAG IEEE_DENORMAL
Note: The following floating-point exceptions are signalling: IEEE_UNDERFLOW_FLAG IEEE_DENORMAL
Note: The following floating-point exceptions are signalling: IEEE_UNDERFLOW_FLAG IEEE_DENORMAL
Note: The following floating-point exceptions are signalling: IEEE_UNDERFLOW_FLAG IEEE_DENORMAL
Note: The following floating-point exceptions are signalling: IEEE_UNDERFLOW_FLAG IEEE_DENORMAL
Note: The following floating-point exceptions are signalling: IEEE_UNDERFLOW_FLAG IEEE_DENORMAL
Note: The following floating-point exceptions are signalling: IEEE_UNDERFLOW_FLAG IEEE_DENORMAL
Note: The following floating-point exceptions are signalling: IEEE_UNDERFLOW_FLAG IEEE_DENORMAL
Note: The following floating-point exceptions are signalling: IEEE_UNDERFLOW_FLAG IEEE_DENORMAL
Note: The following floating-point exceptions are signalling: IEEE_UNDERFLOW_FLAG IEEE_DENORMAL
Note: The following floating-point exceptions are signalling: IEEE_UNDERFLOW_FLAG IEEE_DENORMAL
