
     Program PWSCF v.7.4 starts on 27Oct2025 at 14:36:50 

     This program is part of the open-source Quantum ESPRESSO suite
     for quantum simulation of materials; please cite
         "P. Giannozzi et al., J. Phys.:Condens. Matter 21 395502 (2009);
         "P. Giannozzi et al., J. Phys.:Condens. Matter 29 465901 (2017);
         "P. Giannozzi et al., J. Chem. Phys. 152 154105 (2020);
          URL http://www.quantum-espresso.org", 
     in publications or presentations arising from this work. More details at
     http://www.quantum-espresso.org/quote

     Parallel version (MPI & OpenMP), running on      16 processor cores
     Number of MPI processes:                16
     Threads/MPI process:                     1

     MPI processes distributed on     1 nodes
     229084 MiB available memory on the printing compute node when the environment starts

     Reading input from TiFe2_ecutwfc_convergence/TiFe2_ecut40.in

     Current dimensions of program PWSCF are:
     Max number of different atomic species (ntypx) = 10
     Max number of k-points (npk) =  40000
     Max angular momentum in pseudopotentials (lmaxx) =  4
     file Fe.pbe-spn-kjpaw_psl.0.2.1.UPF: wavefunction(s)  3D renormalized

     IMPORTANT: XC functional enforced from input :
     Exchange-correlation= PBE
                           (   1   4   3   4   0   0   0)
     Any further DFT definition will be discarded
     Please, verify this is what you really want

     Message from routine setup:
     using ibrav=0 with symmetry is DISCOURAGED, use correct ibrav instead

     R & G space division:  proc/nbgrp/npool/nimage =      16
     Subspace diagonalization in iterative solution of the eigenvalue problem:
     a serial algorithm will be used


     Parallelization info
     --------------------
     sticks:   dense  smooth     PW     G-vecs:    dense   smooth      PW
     Min          72      57     16                 3210     2295     358
     Max          73      58     18                 3215     2304     363
     Sum        1159     925    265                51385    36803    5757

     Using Slab Decomposition



     bravais-lattice index     =            0
     lattice parameter (alat)  =       9.1568  a.u.
     unit-cell volume          =    1075.5644 (a.u.)^3
     number of atoms/cell      =           12
     number of atomic types    =            2
     number of electrons       =       176.00
     number of Kohn-Sham states=          106
     kinetic-energy cutoff     =      40.0000  Ry
     charge density cutoff     =     200.0000  Ry
     scf convergence threshold =      1.0E-08
     mixing beta               =       0.7000
     number of iterations used =            8  plain     mixing
     Exchange-correlation= PBE
                           (   1   4   3   4   0   0   0)

     celldm(1)=   9.156781  celldm(2)=   0.000000  celldm(3)=   0.000000
     celldm(4)=   0.000000  celldm(5)=   0.000000  celldm(6)=   0.000000

     crystal axes: (cart. coord. in units of alat)
               a(1) = (   1.000000   0.000000   0.000000 )  
               a(2) = (  -0.500000   0.866025   0.000000 )  
               a(3) = (   0.000000   0.000000   1.617623 )  

     reciprocal axes: (cart. coord. in units 2 pi/alat)
               b(1) = (  1.000000  0.577350 -0.000000 )  
               b(2) = (  0.000000  1.154701  0.000000 )  
               b(3) = (  0.000000 -0.000000  0.618191 )  


     PseudoPot. # 1 for Fe read from file:
     ./Fe.pbe-spn-kjpaw_psl.0.2.1.UPF
     MD5 check sum: e86618425769142926afa95317d90200
     Pseudo is Projector augmented-wave + core cor, Zval = 16.0
     Generated using "atomic" code by A. Dal Corso  v.5.0.99 svn rev. 10869
     Shape of augmentation charge: PSQ
     Using radial grid of 1191 points,  6 beta functions with: 
                l(1) =   0
                l(2) =   0
                l(3) =   1
                l(4) =   1
                l(5) =   2
                l(6) =   2
     Q(r) pseudized with 0 coefficients 


     PseudoPot. # 2 for Ti read from file:
     ./Ti_pbe_v1.4.uspp.F.UPF
     MD5 check sum: 88a00a6731bd790ddea75d31a80cb452
     Pseudo is Ultrasoft + core correction, Zval = 12.0
     Generated by new atomic code, or converted to UPF format
     Using radial grid of  851 points,  6 beta functions with: 
                l(1) =   0
                l(2) =   0
                l(3) =   1
                l(4) =   1
                l(5) =   2
                l(6) =   2
     Q(r) pseudized with  6 coefficients,  rinner =    1.000   1.000   1.000
                                                       1.000   1.000

     atomic species   valence    mass     pseudopotential
     Fe               16.00    55.84500     Fe( 1.00)
     Ti               12.00    47.86700     Ti( 1.00)

     24 Sym. Ops., with inversion, found (12 have fractional translation)



   Cartesian axes

     site n.     atom                  positions (alat units)
         1        Fe     tau(   1) = (   0.7465670   0.1463196   0.4044057  )
         2        Fe     tau(   2) = (  -0.2465670   0.7197058   1.2132171  )
         3        Fe     tau(   3) = (  -0.0000000   0.2926392   1.2132171  )
         4        Fe     tau(   4) = (   0.2534330   0.1463196   0.4044057  )
         5        Fe     tau(   5) = (   0.5000000   0.5733862   0.4044057  )
         6        Fe     tau(   6) = (   0.2465670   0.7197058   1.2132171  )
         7        Fe     tau(   7) = (   0.0000000   0.0000000   0.0000000  )
         8        Fe     tau(   8) = (   0.0000000   0.0000000   0.8088114  )
         9        Ti     tau(   9) = (   0.5000000   0.2886751   1.5200090  )
        10        Ti     tau(  10) = (  -0.0000000   0.5773503   0.7111976  )
        11        Ti     tau(  11) = (  -0.0000000   0.5773503   0.0976138  )
        12        Ti     tau(  12) = (   0.5000000   0.2886751   0.9064252  )

     number of k points=    28  Marzari-Vanderbilt smearing, width (Ry)=  0.0050
                       cart. coord. in units 2pi/alat
        k(    1) = (   0.0000000   0.0000000   0.0000000), wk =   0.0092593
        k(    2) = (   0.0000000   0.0000000   0.1030318), wk =   0.0185185
        k(    3) = (   0.0000000   0.0000000   0.2060637), wk =   0.0185185
        k(    4) = (   0.0000000   0.0000000  -0.3090955), wk =   0.0092593
        k(    5) = (   0.0000000   0.1924501   0.0000000), wk =   0.0555556
        k(    6) = (   0.0000000   0.1924501   0.1030318), wk =   0.1111111
        k(    7) = (   0.0000000   0.1924501   0.2060637), wk =   0.1111111
        k(    8) = (   0.0000000   0.1924501  -0.3090955), wk =   0.0555556
        k(    9) = (   0.0000000   0.3849002   0.0000000), wk =   0.0555556
        k(   10) = (   0.0000000   0.3849002   0.1030318), wk =   0.1111111
        k(   11) = (   0.0000000   0.3849002   0.2060637), wk =   0.1111111
        k(   12) = (   0.0000000   0.3849002  -0.3090955), wk =   0.0555556
        k(   13) = (   0.0000000  -0.5773503   0.0000000), wk =   0.0277778
        k(   14) = (   0.0000000  -0.5773503   0.1030318), wk =   0.0555556
        k(   15) = (   0.0000000  -0.5773503   0.2060637), wk =   0.0555556
        k(   16) = (   0.0000000  -0.5773503  -0.3090955), wk =   0.0277778
        k(   17) = (   0.1666667   0.2886751   0.0000000), wk =   0.0555556
        k(   18) = (   0.1666667   0.2886751   0.1030318), wk =   0.1111111
        k(   19) = (   0.1666667   0.2886751   0.2060637), wk =   0.1111111
        k(   20) = (   0.1666667   0.2886751  -0.3090955), wk =   0.0555556
        k(   21) = (   0.1666667   0.4811252   0.0000000), wk =   0.1111111
        k(   22) = (   0.1666667   0.4811252   0.1030318), wk =   0.2222222
        k(   23) = (   0.1666667   0.4811252   0.2060637), wk =   0.2222222
        k(   24) = (   0.1666667   0.4811252  -0.3090955), wk =   0.1111111
        k(   25) = (   0.3333333   0.5773503   0.0000000), wk =   0.0185185
        k(   26) = (   0.3333333   0.5773503   0.1030318), wk =   0.0370370
        k(   27) = (   0.3333333   0.5773503   0.2060637), wk =   0.0370370
        k(   28) = (   0.3333333   0.5773503  -0.3090955), wk =   0.0185185

     Dense  grid:    51385 G-vectors     FFT dimensions: (  45,  45,  72)

     Smooth grid:    36803 G-vectors     FFT dimensions: (  40,  40,  60)

     Estimated max dynamical RAM per process >      29.06 MB

     Estimated total dynamical RAM >     464.89 MB

     Check: negative core charge=   -0.000674

     Initial potential from superposition of free atoms

     starting charge     171.9963, renormalised to     176.0000

     negative rho (up, down):  6.539E-03 0.000E+00
     Starting wfcs are  144 randomized atomic wfcs
     Checking if some PAW data can be deallocated... 

     total cpu time spent up to now is        2.3 secs

     per-process dynamical memory:   132.3 Mb

     Self-consistent Calculation

     iteration #  1     ecut=    40.00 Ry     beta= 0.70
     Davidson diagonalization with overlap
     ethr =  1.00E-02,  avg # of iterations =  2.0

     negative rho (up, down):  1.644E-03 0.000E+00

     total cpu time spent up to now is        5.6 secs

     total energy              =   -3014.09532788 Ry
     estimated scf accuracy    <     119.23881912 Ry

     iteration #  2     ecut=    40.00 Ry     beta= 0.70
     Davidson diagonalization with overlap
     ethr =  1.00E-02,  avg # of iterations =  6.2

     total cpu time spent up to now is       12.7 secs

     total energy              =   -3076.94779783 Ry
     estimated scf accuracy    <     692.78266267 Ry

     iteration #  3     ecut=    40.00 Ry     beta= 0.70
     Davidson diagonalization with overlap
     ethr =  1.00E-02,  avg # of iterations =  5.0

     total cpu time spent up to now is       18.5 secs

     total energy              =   -3121.79137491 Ry
     estimated scf accuracy    <      95.77786036 Ry

     iteration #  4     ecut=    40.00 Ry     beta= 0.70
     Davidson diagonalization with overlap
     ethr =  1.00E-02,  avg # of iterations =  1.2

     total cpu time spent up to now is       21.2 secs

     total energy              =   -3116.64253283 Ry
     estimated scf accuracy    <      60.20286989 Ry

     iteration #  5     ecut=    40.00 Ry     beta= 0.70
     Davidson diagonalization with overlap
     ethr =  1.00E-02,  avg # of iterations =  1.7

     total cpu time spent up to now is       24.1 secs

     total energy              =   -3115.24466188 Ry
     estimated scf accuracy    <      43.36844598 Ry

     iteration #  6     ecut=    40.00 Ry     beta= 0.70
     Davidson diagonalization with overlap
     ethr =  1.00E-02,  avg # of iterations =  1.0

     negative rho (up, down):  4.225E-04 0.000E+00

     total cpu time spent up to now is       26.8 secs

     total energy              =   -3113.40287840 Ry
     estimated scf accuracy    <      29.34123015 Ry

     iteration #  7     ecut=    40.00 Ry     beta= 0.70
     Davidson diagonalization with overlap
     ethr =  1.00E-02,  avg # of iterations =  1.0

     negative rho (up, down):  2.014E-03 0.000E+00

     total cpu time spent up to now is       29.5 secs

     total energy              =   -3110.89710995 Ry
     estimated scf accuracy    <      20.89912600 Ry

     iteration #  8     ecut=    40.00 Ry     beta= 0.70
     Davidson diagonalization with overlap
     ethr =  1.00E-02,  avg # of iterations =  1.0

     negative rho (up, down):  2.265E-03 0.000E+00

     total cpu time spent up to now is       32.1 secs

     total energy              =   -3111.10482310 Ry
     estimated scf accuracy    <       7.98906520 Ry

     iteration #  9     ecut=    40.00 Ry     beta= 0.70
     Davidson diagonalization with overlap
     ethr =  4.54E-03,  avg # of iterations =  1.1

     negative rho (up, down):  3.265E-03 0.000E+00

     total cpu time spent up to now is       34.8 secs

     total energy              =   -3110.40659876 Ry
     estimated scf accuracy    <       6.84056576 Ry

     iteration # 10     ecut=    40.00 Ry     beta= 0.70
     Davidson diagonalization with overlap
     ethr =  3.89E-03,  avg # of iterations =  1.9

     negative rho (up, down):  5.861E-03 0.000E+00

     total cpu time spent up to now is       37.8 secs

     total energy              =   -3110.31672550 Ry
     estimated scf accuracy    <       0.93106762 Ry

     iteration # 11     ecut=    40.00 Ry     beta= 0.70
     Davidson diagonalization with overlap
     ethr =  5.29E-04,  avg # of iterations =  6.3

     negative rho (up, down):  4.596E-03 0.000E+00

     total cpu time spent up to now is       44.1 secs

     total energy              =   -3110.70629450 Ry
     estimated scf accuracy    <      11.36338327 Ry

     iteration # 12     ecut=    40.00 Ry     beta= 0.70
     Davidson diagonalization with overlap
     ethr =  5.29E-04,  avg # of iterations =  1.6

     negative rho (up, down):  3.007E-03 0.000E+00

     total cpu time spent up to now is       47.0 secs

     total energy              =   -3110.27182256 Ry
     estimated scf accuracy    <       3.83979418 Ry

     iteration # 13     ecut=    40.00 Ry     beta= 0.70
     Davidson diagonalization with overlap
     ethr =  5.29E-04,  avg # of iterations =  5.5

     negative rho (up, down):  3.398E-03 0.000E+00

     total cpu time spent up to now is       52.1 secs

     total energy              =   -3110.76548746 Ry
     estimated scf accuracy    <       1.47561058 Ry

     iteration # 14     ecut=    40.00 Ry     beta= 0.70
     Davidson diagonalization with overlap
     ethr =  5.29E-04,  avg # of iterations =  1.3

     negative rho (up, down):  3.719E-03 0.000E+00

     total cpu time spent up to now is       54.9 secs

     total energy              =   -3110.71320750 Ry
     estimated scf accuracy    <       1.04346378 Ry

     iteration # 15     ecut=    40.00 Ry     beta= 0.70
     Davidson diagonalization with overlap
     ethr =  5.29E-04,  avg # of iterations =  1.0

     negative rho (up, down):  3.922E-03 0.000E+00

     total cpu time spent up to now is       57.5 secs

     total energy              =   -3110.70965386 Ry
     estimated scf accuracy    <       0.36588288 Ry

     iteration # 16     ecut=    40.00 Ry     beta= 0.70
     Davidson diagonalization with overlap
     ethr =  2.08E-04,  avg # of iterations =  1.2

     negative rho (up, down):  3.881E-03 0.000E+00

     total cpu time spent up to now is       60.3 secs

     total energy              =   -3110.71656727 Ry
     estimated scf accuracy    <       0.18687813 Ry

     iteration # 17     ecut=    40.00 Ry     beta= 0.70
     Davidson diagonalization with overlap
     ethr =  1.06E-04,  avg # of iterations =  1.1

     negative rho (up, down):  4.038E-03 0.000E+00

     total cpu time spent up to now is       62.9 secs

     total energy              =   -3110.70804227 Ry
     estimated scf accuracy    <       0.24392984 Ry

     iteration # 18     ecut=    40.00 Ry     beta= 0.70
     Davidson diagonalization with overlap
     ethr =  1.06E-04,  avg # of iterations =  1.2

     negative rho (up, down):  4.357E-03 0.000E+00

     total cpu time spent up to now is       65.7 secs

     total energy              =   -3110.69341513 Ry
     estimated scf accuracy    <       0.14633751 Ry

     iteration # 19     ecut=    40.00 Ry     beta= 0.70
     Davidson diagonalization with overlap
     ethr =  8.31E-05,  avg # of iterations =  2.3

     negative rho (up, down):  4.389E-03 0.000E+00

     total cpu time spent up to now is       68.8 secs

     total energy              =   -3110.70103359 Ry
     estimated scf accuracy    <       0.00167813 Ry

     iteration # 20     ecut=    40.00 Ry     beta= 0.70
     Davidson diagonalization with overlap
     c_bands:  1 eigenvalues not converged
     c_bands:  1 eigenvalues not converged
     ethr =  9.53E-07,  avg # of iterations =  9.9

     negative rho (up, down):  4.385E-03 0.000E+00

     total cpu time spent up to now is       76.3 secs

     total energy              =   -3110.70234491 Ry
     estimated scf accuracy    <       0.00212873 Ry

     iteration # 21     ecut=    40.00 Ry     beta= 0.70
     Davidson diagonalization with overlap
     ethr =  9.53E-07,  avg # of iterations =  1.4

     negative rho (up, down):  4.376E-03 0.000E+00

     total cpu time spent up to now is       79.1 secs

     total energy              =   -3110.70230835 Ry
     estimated scf accuracy    <       0.00119640 Ry

     iteration # 22     ecut=    40.00 Ry     beta= 0.70
     Davidson diagonalization with overlap
     ethr =  6.80E-07,  avg # of iterations =  1.0

     negative rho (up, down):  4.365E-03 0.000E+00

     total cpu time spent up to now is       81.8 secs

     total energy              =   -3110.70227276 Ry
     estimated scf accuracy    <       0.00045674 Ry

     iteration # 23     ecut=    40.00 Ry     beta= 0.70
     Davidson diagonalization with overlap
     ethr =  2.60E-07,  avg # of iterations =  1.4

     negative rho (up, down):  4.365E-03 0.000E+00

     total cpu time spent up to now is       84.6 secs

     total energy              =   -3110.70229592 Ry
     estimated scf accuracy    <       0.00000297 Ry

     iteration # 24     ecut=    40.00 Ry     beta= 0.70
     Davidson diagonalization with overlap
     ethr =  1.69E-09,  avg # of iterations =  5.8

     negative rho (up, down):  4.364E-03 0.000E+00

     total cpu time spent up to now is       90.2 secs

     total energy              =   -3110.70229965 Ry
     estimated scf accuracy    <       0.00000011 Ry

     iteration # 25     ecut=    40.00 Ry     beta= 0.70
     Davidson diagonalization with overlap
     ethr =  6.32E-11,  avg # of iterations =  5.6

     negative rho (up, down):  4.365E-03 0.000E+00

     total cpu time spent up to now is       96.2 secs

     total energy              =   -3110.70229974 Ry
     estimated scf accuracy    <       0.00000042 Ry

     iteration # 26     ecut=    40.00 Ry     beta= 0.70
     Davidson diagonalization with overlap
     ethr =  6.32E-11,  avg # of iterations =  1.1

     negative rho (up, down):  4.365E-03 0.000E+00

     total cpu time spent up to now is       98.9 secs

     total energy              =   -3110.70229973 Ry
     estimated scf accuracy    <       0.00000011 Ry

     iteration # 27     ecut=    40.00 Ry     beta= 0.70
     Davidson diagonalization with overlap
     ethr =  6.26E-11,  avg # of iterations =  1.6

     negative rho (up, down):  4.365E-03 0.000E+00

     total cpu time spent up to now is      101.8 secs

     End of self-consistent calculation

          k = 0.0000 0.0000 0.0000 (  4619 PWs)   bands (ev):

   -70.7595 -70.7368 -70.7020 -70.6791 -70.6743 -70.6743 -70.6743 -70.6743
   -40.7679 -40.7537 -40.7182 -40.7028 -36.9881 -36.9247 -36.8171 -36.7058
   -36.7058 -36.6873 -36.6873 -36.6749 -36.6749 -36.6310 -36.5925 -36.5701
   -36.5701 -36.5629 -36.5629 -36.4689 -36.4689 -36.4535 -36.4523 -36.4523
   -36.4477 -36.4421 -36.4296 -36.4296 -17.0665 -17.0665 -17.0537 -17.0526
   -17.0526 -17.0520 -16.9125 -16.9092 -16.8923 -16.8923 -16.8777 -16.8777
     8.7163  10.7794  11.6118  12.0961  12.5905  12.6887  12.8738  12.8738
    13.1310  13.1310  13.3201  13.3934  13.4795  13.4795  13.9251  13.9251
    14.0789  14.0789  14.3147  14.4179  14.4179  14.4616  14.4616  14.9406
    14.9406  15.1569  15.6175  15.6175  15.7823  15.7823  15.9306  16.0011
    16.0011  16.0109  16.0109  16.1566  16.1566  16.1789  16.2406  16.2626
    16.2626  16.3848  16.3848  16.3882  16.4440  16.8624  16.8624  17.1231
    17.1400  17.1400  17.3900  17.3900  17.5945  17.5945  17.6300  17.6304
    17.8897  17.8897

          k = 0.0000 0.0000 0.1030 (  4590 PWs)   bands (ev):

   -70.7584 -70.7391 -70.6996 -70.6803 -70.6743 -70.6743 -70.6742 -70.6742
   -40.7672 -40.7550 -40.7168 -40.7036 -36.9798 -36.9308 -36.8010 -36.6982
   -36.6982 -36.6932 -36.6932 -36.6620 -36.6620 -36.6574 -36.5862 -36.5862
   -36.5603 -36.5386 -36.5386 -36.4672 -36.4672 -36.4544 -36.4475 -36.4475
   -36.4471 -36.4392 -36.4262 -36.4262 -17.0656 -17.0656 -17.0536 -17.0536
   -17.0534 -17.0519 -16.9125 -16.9097 -16.8912 -16.8912 -16.8786 -16.8786
     8.7977  10.4394  11.8918  12.0974  12.4920  12.8858  12.8908  12.8908
    13.1097  13.1097  13.1619  13.4996  13.5089  13.5089  13.9066  13.9066
    14.0580  14.0580  14.3032  14.3032  14.3997  14.6155  14.6155  14.9991
    14.9991  15.1965  15.5415  15.5415  15.6590  15.6590  15.8342  16.0178
    16.0178  16.1421  16.1421  16.1493  16.1567  16.1567  16.1830  16.2366
    16.2818  16.2818  16.3234  16.3234  16.6024  16.9380  16.9380  17.1271
    17.1271  17.3255  17.3835  17.3835  17.5934  17.5934  17.6300  17.6305
    17.8732  17.8732

          k = 0.0000 0.0000 0.2061 (  4572 PWs)   bands (ev):

   -70.7552 -70.7445 -70.6942 -70.6835 -70.6743 -70.6743 -70.6742 -70.6742
   -40.7651 -40.7582 -40.7134 -40.7059 -36.9692 -36.9440 -36.7633 -36.6983
   -36.6962 -36.6962 -36.6926 -36.6926 -36.6463 -36.6463 -36.6065 -36.6065
   -36.5222 -36.5090 -36.5090 -36.4798 -36.4798 -36.4728 -36.4441 -36.4429
   -36.4429 -36.4393 -36.4272 -36.4272 -17.0632 -17.0632 -17.0563 -17.0563
   -17.0525 -17.0517 -16.9124 -16.9108 -16.8884 -16.8884 -16.8812 -16.8812
     9.0286   9.9000  12.1021  12.1042  12.5776  12.9333  12.9333  12.9773
    13.0569  13.0569  13.1542  13.5128  13.5870  13.5870  13.8195  13.8195
    14.0625  14.0625  14.1981  14.1981  14.6750  14.8267  14.8267  15.1195
    15.1195  15.2982  15.3636  15.3636  15.4889  15.4889  15.6547  15.7297
    16.0525  16.0525  16.1185  16.1185  16.1862  16.1862  16.1944  16.2244
    16.2244  16.2253  16.4952  16.4952  16.8632  16.9917  16.9917  17.1169
    17.1169  17.3485  17.3485  17.6301  17.6431  17.6431  17.6464  17.8219
    17.8219  18.0490

          k = 0.0000 0.0000-0.3091 (  4578 PWs)   bands (ev):

   -70.7503 -70.7503 -70.6884 -70.6884 -70.6743 -70.6743 -70.6743 -70.6743
   -40.7619 -40.7619 -40.7094 -40.7094 -36.9613 -36.9613 -36.7269 -36.7269
   -36.7006 -36.7006 -36.7006 -36.7006 -36.6296 -36.6296 -36.6296 -36.6296
   -36.4970 -36.4970 -36.4970 -36.4970 -36.4855 -36.4855 -36.4482 -36.4482
   -36.4280 -36.4280 -36.4280 -36.4280 -17.0598 -17.0598 -17.0598 -17.0598
   -17.0518 -17.0518 -16.9119 -16.9119 -16.8847 -16.8847 -16.8847 -16.8847
     9.4099   9.4099  12.1181  12.1181  12.7949  12.7949  12.9913  12.9913
    12.9913  12.9913  13.3864  13.3864  13.6968  13.6968  13.6968  13.6968
    14.1157  14.1157  14.1157  14.1157  15.0517  15.0517  15.0517  15.0517
    15.1530  15.1530  15.3405  15.3405  15.3405  15.3405  15.4896  15.4896
    16.0919  16.0919  16.0919  16.0919  16.1729  16.1729  16.1729  16.1729
    16.2097  16.2097  16.7663  16.7663  16.7663  16.7663  17.2569  17.2569
    17.2569  17.2569  17.2619  17.2619  17.6301  17.6301  17.7381  17.7381
    17.7381  17.7381

          k = 0.0000 0.1925 0.0000 (  4584 PWs)   bands (ev):

   -70.7560 -70.7332 -70.7020 -70.6871 -70.6779 -70.6743 -70.6743 -70.6698
   -40.7652 -40.7507 -40.7212 -40.7057 -36.9623 -36.8950 -36.8105 -36.7009
   -36.6884 -36.6861 -36.6762 -36.6706 -36.6701 -36.6146 -36.5890 -36.5664
   -36.5658 -36.5627 -36.5576 -36.4651 -36.4628 -36.4616 -36.4596 -36.4541
   -36.4534 -36.4502 -36.4451 -36.4356 -17.0822 -17.0709 -17.0565 -17.0557
   -17.0483 -17.0298 -16.9281 -16.9050 -16.8978 -16.8882 -16.8735 -16.8707
     8.9914  11.0015  11.8007  12.2236  12.6403  12.7010  12.8448  12.9273
    13.0315  13.2634  13.3003  13.5101  13.5351  13.5714  13.8836  13.9821
    14.0891  14.1850  14.3720  14.4033  14.4293  14.4639  14.4912  14.7987
    14.8812  14.9544  15.1854  15.4269  15.4529  15.4598  15.6085  15.7960
    15.8745  15.9540  16.0269  16.1259  16.1627  16.1838  16.2181  16.3211
    16.3576  16.4771  16.5224  16.6027  16.6345  16.7331  16.9608  17.0001
    17.0587  17.1478  17.3915  17.4022  17.4539  17.6351  17.6783  17.6858
    17.6875  18.0371

          k = 0.0000 0.1925 0.1030 (  4595 PWs)   bands (ev):

   -70.7549 -70.7356 -70.6999 -70.6875 -70.6776 -70.6743 -70.6743 -70.6705
   -40.7644 -40.7521 -40.7197 -40.7065 -36.9595 -36.9047 -36.7967 -36.6997
   -36.6948 -36.6874 -36.6776 -36.6677 -36.6613 -36.6469 -36.5864 -36.5848
   -36.5646 -36.5421 -36.5393 -36.4734 -36.4713 -36.4674 -36.4621 -36.4598
   -36.4517 -36.4506 -36.4498 -36.4376 -17.0807 -17.0700 -17.0585 -17.0575
   -17.0460 -17.0307 -16.9271 -16.9086 -16.8939 -16.8871 -16.8745 -16.8720
     9.0665  10.6627  12.0561  12.2255  12.5475  12.7711  12.9132  12.9490
    13.0458  13.2498  13.2653  13.4718  13.5697  13.6044  13.8834  13.9699
    14.0514  14.1487  14.2576  14.3412  14.4497  14.5974  14.6505  14.8618
    14.9312  14.9866  15.1894  15.3710  15.3874  15.4539  15.6753  15.7286
    15.8585  15.9405  15.9560  16.0765  16.1144  16.1949  16.2315  16.3105
    16.3201  16.4354  16.5143  16.5600  16.6153  16.8781  16.9475  17.0653
    17.0823  17.2263  17.3874  17.4258  17.4493  17.5892  17.6559  17.6834
    17.7594  18.0122

          k = 0.0000 0.1925 0.2061 (  4595 PWs)   bands (ev):

   -70.7517 -70.7410 -70.6955 -70.6888 -70.6765 -70.6743 -70.6743 -70.6724
   -40.7624 -40.7555 -40.7162 -40.7088 -36.9511 -36.9211 -36.7658 -36.7105
   -36.6949 -36.6865 -36.6799 -36.6781 -36.6538 -36.6464 -36.6069 -36.6068
   -36.5350 -36.5221 -36.5164 -36.4850 -36.4842 -36.4789 -36.4625 -36.4584
   -36.4582 -36.4517 -36.4443 -36.4376 -17.0765 -17.0675 -17.0641 -17.0603
   -17.0418 -17.0333 -16.9242 -16.9143 -16.8876 -16.8843 -16.8770 -16.8758
     9.2935  10.1371  12.2285  12.2536  12.6113  12.8089  12.9322  13.0066
    13.1552  13.1852  13.2149  13.4727  13.6179  13.6550  13.8109  13.8955
    14.0536  14.1253  14.1708  14.2393  14.6241  14.8284  14.8397  14.9950
    15.0138  15.0553  15.1685  15.2791  15.2953  15.3783  15.5492  15.6739
    15.7900  15.9066  15.9584  16.0040  16.0230  16.1361  16.2371  16.2553
    16.3020  16.4068  16.5047  16.6638  16.6895  16.8904  16.9306  16.9744
    17.1793  17.3514  17.3920  17.4562  17.5021  17.6123  17.6499  17.7298
    17.7425  17.9406

          k = 0.0000 0.1925-0.3091 (  4580 PWs)   bands (ev):

   -70.7468 -70.7468 -70.6914 -70.6914 -70.6747 -70.6747 -70.6743 -70.6743
   -40.7592 -40.7592 -40.7122 -40.7122 -36.9362 -36.9362 -36.7316 -36.7316
   -36.6902 -36.6902 -36.6820 -36.6820 -36.6311 -36.6311 -36.6254 -36.6254
   -36.5119 -36.5119 -36.4980 -36.4980 -36.4890 -36.4890 -36.4572 -36.4572
   -36.4539 -36.4539 -36.4401 -36.4401 -17.0705 -17.0705 -17.0640 -17.0640
   -17.0373 -17.0373 -16.9197 -16.9197 -16.8812 -16.8812 -16.8806 -16.8806
     9.6616   9.6616  12.2451  12.2451  12.7597  12.7597  13.0230  13.0230
    13.0913  13.0913  13.3912  13.3912  13.6907  13.6907  13.7713  13.7713
    14.1076  14.1076  14.1649  14.1649  14.9087  14.9087  14.9950  14.9950
    15.0723  15.0723  15.1453  15.1453  15.2988  15.2989  15.4805  15.4805
    15.8961  15.8961  15.9450  15.9450  16.0285  16.0285  16.2264  16.2264
    16.3545  16.3545  16.6982  16.6982  16.7950  16.7950  16.8515  16.8515
    17.2833  17.2833  17.4585  17.4585  17.5831  17.5831  17.6486  17.6486
    17.8372  17.8372

          k = 0.0000 0.3849 0.0000 (  4606 PWs)   bands (ev):

   -70.7474 -70.7240 -70.7020 -70.6991 -70.6871 -70.6743 -70.6743 -70.6665
   -40.7580 -40.7430 -40.7291 -40.7134 -36.9129 -36.8454 -36.8067 -36.7117
   -36.6864 -36.6842 -36.6742 -36.6547 -36.6250 -36.6071 -36.6029 -36.5783
   -36.5728 -36.5658 -36.5599 -36.5341 -36.5050 -36.4937 -36.4878 -36.4709
   -36.4603 -36.4538 -36.4496 -36.4392 -17.0913 -17.0793 -17.0646 -17.0638
   -17.0383 -17.0016 -16.9532 -16.9098 -16.8955 -16.8805 -16.8657 -16.8653
     9.7617  11.5208  12.2076  12.2444  12.5197  12.6995  12.7759  13.0758
    13.1213  13.2082  13.6921  13.6952  13.7208  13.7408  13.8430  14.0511
    14.1240  14.2663  14.4152  14.4311  14.4574  14.4939  14.5667  14.5728
    14.6225  14.6746  14.7185  14.9356  14.9757  14.9954  15.1943  15.2382
    15.3823  15.5489  15.8130  16.1108  16.1919  16.2405  16.2500  16.3089
    16.3559  16.4657  16.5314  16.7810  16.7850  16.8553  16.9314  16.9484
    16.9534  17.1304  17.1311  17.4380  17.5049  17.7233  17.7955  17.7965
    17.9489  18.3613

          k = 0.0000 0.3849 0.1030 (  4600 PWs)   bands (ev):

   -70.7463 -70.7266 -70.7012 -70.6991 -70.6853 -70.6743 -70.6743 -70.6675
   -40.7573 -40.7449 -40.7271 -40.7141 -36.9100 -36.8553 -36.7903 -36.7125
   -36.6884 -36.6764 -36.6699 -36.6563 -36.6280 -36.6243 -36.6043 -36.5809
   -36.5733 -36.5578 -36.5397 -36.5332 -36.5016 -36.4911 -36.4898 -36.4756
   -36.4646 -36.4527 -36.4513 -36.4411 -17.0894 -17.0783 -17.0659 -17.0649
   -17.0371 -17.0058 -16.9492 -16.9131 -16.8922 -16.8794 -16.8669 -16.8666
     9.8305  11.2562  12.1551  12.4766  12.5213  12.7284  12.8016  13.0554
    13.1058  13.2719  13.6116  13.6121  13.7757  13.8217  13.8530  14.0305
    14.1108  14.2255  14.3505  14.3954  14.4284  14.4553  14.5585  14.6523
    14.6891  14.7493  14.8015  14.9375  14.9773  15.0772  15.2053  15.2558
    15.3593  15.5624  15.8143  16.0202  16.1475  16.1608  16.2230  16.2595
    16.3232  16.4959  16.5446  16.7727  16.8001  16.8489  16.8517  16.9570
    16.9773  17.1736  17.2973  17.3873  17.4839  17.6328  17.7537  17.8266
    18.1334  18.3118

          k = 0.0000 0.3849 0.2061 (  4606 PWs)   bands (ev):

   -70.7431 -70.7322 -70.7002 -70.6993 -70.6807 -70.6743 -70.6743 -70.6707
   -40.7554 -40.7487 -40.7232 -40.7161 -36.9047 -36.8753 -36.7675 -36.7244
   -36.6852 -36.6703 -36.6635 -36.6596 -36.6543 -36.6228 -36.6208 -36.5990
   -36.5577 -36.5532 -36.5254 -36.5163 -36.5081 -36.4889 -36.4864 -36.4786
   -36.4752 -36.4562 -36.4498 -36.4421 -17.0843 -17.0756 -17.0703 -17.0679
   -17.0328 -17.0149 -16.9400 -16.9204 -16.8855 -16.8765 -16.8714 -16.8692
    10.0363  10.7988  12.2013  12.3814  12.7547  12.7797  12.8762  13.0088
    13.1938  13.3228  13.4735  13.4942  13.8537  13.8573  13.9128  14.0106
    14.0556  14.1616  14.3132  14.3342  14.3666  14.5094  14.6195  14.6920
    14.7275  14.7658  14.8913  14.9900  15.0555  15.1699  15.2388  15.3182
    15.3739  15.6360  15.8066  15.8943  15.9951  16.0364  16.0609  16.1162
    16.3592  16.4597  16.5817  16.7571  16.8214  16.8225  16.8412  16.9522
    17.0458  17.2343  17.2708  17.4147  17.4948  17.6469  17.7491  17.9297
    18.1047  18.2035

          k = 0.0000 0.3849-0.3091 (  4602 PWs)   bands (ev):

   -70.7381 -70.7381 -70.6996 -70.6996 -70.6753 -70.6753 -70.6743 -70.6743
   -40.7525 -40.7525 -40.7193 -40.7193 -36.8912 -36.8912 -36.7434 -36.7434
   -36.6760 -36.6760 -36.6618 -36.6618 -36.6420 -36.6420 -36.6123 -36.6123
   -36.5514 -36.5514 -36.5145 -36.5145 -36.5007 -36.5007 -36.4801 -36.4801
   -36.4713 -36.4713 -36.4416 -36.4416 -17.0772 -17.0772 -17.0718 -17.0718
   -17.0248 -17.0248 -16.9298 -16.9298 -16.8780 -16.8780 -16.8728 -16.8728
    10.3699  10.3699  12.2784  12.2784  12.8101  12.8101  12.9640  12.9640
    13.3232  13.3232  13.3899  13.3899  13.8777  13.8777  13.9556  13.9556
    14.0953  14.0953  14.3158  14.3158  14.4419  14.4419  14.6684  14.6684
    14.7492  14.7492  14.9632  14.9632  15.1443  15.1443  15.2945  15.2945
    15.6391  15.6391  15.8023  15.8023  15.9061  15.9061  15.9947  15.9947
    16.4189  16.4189  16.6858  16.6858  16.7856  16.7856  16.9060  16.9060
    17.1502  17.1502  17.3139  17.3139  17.6492  17.6492  17.8725  17.8725
    18.0724  18.0724

          k = 0.0000-0.5774 0.0000 (  4574 PWs)   bands (ev):

   -70.7415 -70.7170 -70.7061 -70.7020 -70.6942 -70.6743 -70.6743 -70.6654
   -40.7521 -40.7369 -40.7352 -40.7196 -36.8825 -36.8035 -36.7950 -36.7288
   -36.6910 -36.6682 -36.6674 -36.6249 -36.6126 -36.6016 -36.5794 -36.5774
   -36.5726 -36.5684 -36.5640 -36.5502 -36.5409 -36.5112 -36.5045 -36.4718
   -36.4566 -36.4516 -36.4450 -36.4360 -17.0925 -17.0832 -17.0701 -17.0673
   -17.0319 -16.9886 -16.9658 -16.9169 -16.8897 -16.8768 -16.8649 -16.8619
    10.6313  11.2360  12.2049  12.3266  12.5290  12.7453  12.9694  13.0731
    13.1700  13.3276  13.7409  13.7629  13.8161  14.0254  14.0817  14.0945
    14.1173  14.2023  14.2651  14.4485  14.5139  14.5622  14.5751  14.5780
    14.5924  14.6135  14.6309  14.6825  14.7000  14.7615  14.8472  14.8527
    14.8731  15.1823  15.8578  16.1534  16.1717  16.2202  16.2418  16.3178
    16.3550  16.4000  16.4549  16.6604  16.7391  16.9472  17.1046  17.1405
    17.1447  17.1740  17.2302  17.4243  17.5295  17.6400  17.6531  17.7770
    17.9514  18.3063

          k = 0.0000-0.5774 0.1030 (  4598 PWs)   bands (ev):

   -70.7403 -70.7196 -70.7061 -70.7038 -70.6897 -70.6743 -70.6743 -70.6666
   -40.7516 -40.7404 -40.7317 -40.7201 -36.8827 -36.8244 -36.7797 -36.7336
   -36.6873 -36.6758 -36.6629 -36.6302 -36.6213 -36.6141 -36.5829 -36.5826
   -36.5792 -36.5767 -36.5510 -36.5486 -36.5454 -36.5080 -36.4987 -36.4777
   -36.4677 -36.4519 -36.4494 -36.4417 -17.0906 -17.0822 -17.0706 -17.0684
   -17.0317 -16.9968 -16.9576 -16.9184 -16.8882 -16.8758 -16.8665 -16.8629
    10.6862  11.2747  11.9529  12.2374  12.6976  12.7922  12.9432  13.0640
    13.2031  13.3237  13.6999  13.7754  13.8144  14.0683  14.0757  14.0903
    14.1606  14.1815  14.1866  14.3651  14.4490  14.5517  14.5518  14.5529
    14.5882  14.6105  14.6410  14.7333  14.7771  14.8344  14.8421  14.8705
    14.9973  15.2490  15.8617  16.1077  16.1083  16.2001  16.2183  16.2347
    16.3078  16.3097  16.6185  16.7340  16.7814  16.8609  16.9201  17.0212
    17.1704  17.2899  17.3338  17.3983  17.4571  17.6126  17.8453  17.8524
    17.9453  18.2940

          k = 0.0000-0.5774 0.2061 (  4604 PWs)   bands (ev):

   -70.7370 -70.7254 -70.7060 -70.7052 -70.6824 -70.6743 -70.6743 -70.6701
   -40.7501 -40.7443 -40.7277 -40.7217 -36.8717 -36.8468 -36.7629 -36.7390
   -36.6827 -36.6650 -36.6526 -36.6451 -36.6421 -36.6270 -36.5853 -36.5844
   -36.5828 -36.5819 -36.5495 -36.5441 -36.5237 -36.5024 -36.4878 -36.4815
   -36.4779 -36.4537 -36.4492 -36.4456 -17.0854 -17.0794 -17.0731 -17.0715
   -17.0292 -17.0101 -16.9445 -16.9235 -16.8837 -16.8729 -16.8710 -16.8655
    10.8522  11.3212  11.6826  12.0193  12.7622  12.8857  12.9796  13.0652
    13.3092  13.3655  13.5882  13.6449  13.9029  14.0537  14.0680  14.0690
    14.1003  14.1579  14.2553  14.3211  14.4609  14.5193  14.5354  14.5720
    14.6085  14.6142  14.6507  14.6645  14.7969  14.8112  14.9265  14.9543
    15.3043  15.4695  15.8554  15.9540  15.9919  16.0327  16.0991  16.1538
    16.3036  16.3247  16.7193  16.7194  16.8184  16.8494  16.9199  16.9497
    16.9806  17.2844  17.3852  17.4366  17.6092  17.6219  17.8869  18.0081
    18.0444  18.2050

          k = 0.0000-0.5774-0.3091 (  4628 PWs)   bands (ev):

   -70.7318 -70.7318 -70.7058 -70.7058 -70.6755 -70.6755 -70.6743 -70.6743
   -40.7476 -40.7476 -40.7243 -40.7243 -36.8648 -36.8648 -36.7514 -36.7514
   -36.6704 -36.6704 -36.6569 -36.6569 -36.6433 -36.6433 -36.5874 -36.5874
   -36.5852 -36.5852 -36.5482 -36.5482 -36.5071 -36.5071 -36.4942 -36.4942
   -36.4718 -36.4718 -36.4455 -36.4455 -17.0787 -17.0787 -17.0755 -17.0755
   -17.0217 -17.0217 -16.9326 -16.9326 -16.8773 -16.8773 -16.8691 -16.8691
    11.1035  11.1035  11.7675  11.7675  12.8162  12.8162  13.0680  13.0680
    13.4589  13.4589  13.4650  13.4650  14.0022  14.0022  14.0561  14.0561
    14.0693  14.0693  14.3391  14.3391  14.5184  14.5184  14.5418  14.5418
    14.6172  14.6172  14.6185  14.6185  14.7964  14.7964  14.9730  14.9730
    15.6445  15.6445  15.7395  15.7395  15.9409  15.9409  16.0646  16.0646
    16.3235  16.3235  16.7468  16.7468  16.8062  16.8062  16.9152  16.9152
    17.0950  17.0950  17.4441  17.4441  17.7648  17.7648  17.8228  17.8228
    18.1579  18.1579

          k = 0.1667 0.2887 0.0000 (  4587 PWs)   bands (ev):

   -70.7498 -70.7267 -70.7020 -70.6960 -70.6844 -70.6743 -70.6743 -70.6671
   -40.7601 -40.7453 -40.7268 -40.7112 -36.9252 -36.8580 -36.8021 -36.6998
   -36.6967 -36.6853 -36.6704 -36.6630 -36.6390 -36.6035 -36.5945 -36.5725
   -36.5643 -36.5611 -36.5580 -36.5282 -36.4959 -36.4673 -36.4638 -36.4609
   -36.4605 -36.4595 -36.4497 -36.4443 -17.0885 -17.0799 -17.0640 -17.0618
   -17.0384 -17.0064 -16.9482 -16.9089 -16.8980 -16.8808 -16.8675 -16.8658
     9.5140  11.3878  12.1126  12.3860  12.6454  12.6684  12.7118  13.0123
    13.0971  13.1503  13.5328  13.6474  13.6821  13.7536  13.8155  14.0176
    14.0729  14.2964  14.3534  14.4267  14.4811  14.5563  14.5799  14.6325
    14.6631  14.7583  14.7599  14.9775  15.1230  15.2120  15.2379  15.5487
    15.5868  15.6146  15.8714  15.9655  16.0521  16.1886  16.3520  16.3671
    16.3826  16.4353  16.6721  16.6781  16.7061  16.7890  16.9361  17.0467
    17.0507  17.1981  17.3328  17.3864  17.4060  17.4340  17.8743  17.9029
    17.9131  18.0168

          k = 0.1667 0.2887 0.1030 (  4589 PWs)   bands (ev):

   -70.7487 -70.7292 -70.7007 -70.6961 -70.6832 -70.6743 -70.6743 -70.6681
   -40.7594 -40.7470 -40.7250 -40.7119 -36.9217 -36.8682 -36.7931 -36.7048
   -36.6954 -36.6762 -36.6683 -36.6627 -36.6365 -36.6348 -36.5943 -36.5836
   -36.5657 -36.5486 -36.5422 -36.5235 -36.4894 -36.4733 -36.4697 -36.4629
   -36.4586 -36.4560 -36.4510 -36.4480 -17.0867 -17.0789 -17.0651 -17.0634
   -17.0371 -17.0095 -16.9451 -16.9127 -16.8942 -16.8797 -16.8690 -16.8667
     9.5881  11.0849  12.3415  12.3806  12.6260  12.6551  12.7136  13.0984
    13.1148  13.1612  13.4774  13.5928  13.7163  13.7588  13.8348  14.0269
    14.0620  14.2117  14.3095  14.3718  14.5044  14.5161  14.6265  14.6748
    14.7359  14.7955  14.8869  15.0119  15.1086  15.2010  15.2891  15.5273
    15.5574  15.6189  15.8609  15.8987  16.0076  16.1567  16.2712  16.3227
    16.3753  16.4265  16.5468  16.7544  16.7552  16.8435  16.8887  17.0197
    17.0961  17.2565  17.3509  17.3912  17.4372  17.4613  17.7377  17.8790
    17.9624  18.0556

          k = 0.1667 0.2887 0.2061 (  4589 PWs)   bands (ev):

   -70.7455 -70.7347 -70.6985 -70.6965 -70.6798 -70.6743 -70.6743 -70.6710
   -40.7575 -40.7506 -40.7213 -40.7140 -36.9148 -36.8860 -36.7679 -36.7175
   -36.6920 -36.6696 -36.6680 -36.6591 -36.6563 -36.6299 -36.6152 -36.6008
   -36.5497 -36.5378 -36.5193 -36.5162 -36.4853 -36.4821 -36.4783 -36.4670
   -36.4582 -36.4567 -36.4535 -36.4515 -17.0818 -17.0762 -17.0681 -17.0680
   -17.0327 -17.0169 -16.9377 -16.9201 -16.8872 -16.8769 -16.8733 -16.8693
     9.8014  10.5935  12.3838  12.4694  12.6285  12.6846  12.8459  13.0855
    13.1923  13.2739  13.3741  13.4937  13.7588  13.7817  13.8389  14.0091
    14.0826  14.1310  14.2507  14.2741  14.4816  14.6197  14.7106  14.7511
    14.8206  14.8298  15.0662  15.0725  15.0965  15.1869  15.3974  15.4772
    15.5026  15.6532  15.7838  15.8787  15.9431  16.0421  16.0900  16.1488
    16.3429  16.4208  16.6162  16.7297  16.7864  16.8221  16.8621  16.9624
    17.1939  17.3382  17.3695  17.4346  17.4828  17.5570  17.6631  17.8050
    17.9051  18.0615

          k = 0.1667 0.2887-0.3091 (  4600 PWs)   bands (ev):

   -70.7406 -70.7406 -70.6972 -70.6972 -70.6752 -70.6752 -70.6743 -70.6743
   -40.7544 -40.7544 -40.7173 -40.7173 -36.9035 -36.9035 -36.7398 -36.7398
   -36.6827 -36.6827 -36.6687 -36.6687 -36.6397 -36.6397 -36.6190 -36.6190
   -36.5391 -36.5391 -36.5084 -36.5084 -36.4926 -36.4926 -36.4740 -36.4740
   -36.4595 -36.4595 -36.4551 -36.4551 -17.0753 -17.0753 -17.0718 -17.0718
   -17.0254 -17.0254 -16.9288 -16.9288 -16.8799 -16.8799 -16.8730 -16.8730
    10.1483  10.1483  12.4090  12.4090  12.6898  12.6898  12.9943  12.9943
    13.2669  13.2669  13.4003  13.4003  13.7721  13.7721  13.9037  13.9037
    14.1194  14.1194  14.2370  14.2370  14.5651  14.5651  14.7828  14.7828
    14.8446  14.8446  15.0965  15.0965  15.1579  15.1579  15.4117  15.4117
    15.6199  15.6199  15.8582  15.8582  15.9001  15.9001  16.0108  16.0108
    16.3879  16.3879  16.6873  16.6873  16.7878  16.7878  16.8845  16.8845
    17.3079  17.3079  17.3935  17.3935  17.5837  17.5837  17.7140  17.7140
    17.9333  17.9333

          k = 0.1667 0.4811 0.0000 (  4587 PWs)   bands (ev):

   -70.7415 -70.7170 -70.7061 -70.7020 -70.6942 -70.6743 -70.6743 -70.6654
   -40.7521 -40.7368 -40.7353 -40.7196 -36.8729 -36.8062 -36.7978 -36.7344
   -36.6952 -36.6881 -36.6746 -36.6248 -36.6044 -36.5982 -36.5938 -36.5780
   -36.5763 -36.5635 -36.5627 -36.5589 -36.5103 -36.5071 -36.4898 -36.4729
   -36.4627 -36.4619 -36.4594 -36.4494 -17.0913 -17.0860 -17.0718 -17.0709
   -17.0233 -16.9815 -16.9710 -16.9250 -16.8884 -16.8734 -16.8693 -16.8577
    10.4360  11.6830  12.1134  12.4855  12.4941  12.7626  12.7673  12.9676
    13.0487  13.2623  13.7749  13.8268  13.9116  13.9491  13.9624  14.0242
    14.0328  14.1749  14.3028  14.3757  14.3959  14.4730  14.5403  14.6094
    14.6510  14.6516  14.6716  14.7220  14.7630  14.8200  14.9687  15.0271
    15.1516  15.2520  15.7665  15.8850  16.0695  16.0808  16.1969  16.2710
    16.5003  16.5563  16.5774  16.7190  16.7974  16.8577  16.9901  17.0604
    17.2343  17.2412  17.3541  17.3684  17.4341  17.5696  17.8316  17.9253
    18.0404  18.1519

          k = 0.1667 0.4811 0.1030 (  4593 PWs)   bands (ev):

   -70.7403 -70.7196 -70.7061 -70.7038 -70.6897 -70.6743 -70.6743 -70.6666
   -40.7516 -40.7404 -40.7317 -40.7202 -36.8717 -36.8222 -36.7822 -36.7363
   -36.6943 -36.6833 -36.6730 -36.6290 -36.6167 -36.6057 -36.5969 -36.5930
   -36.5719 -36.5670 -36.5513 -36.5471 -36.5109 -36.5018 -36.4901 -36.4754
   -36.4680 -36.4606 -36.4585 -36.4503 -17.0898 -17.0846 -17.0732 -17.0707
   -17.0237 -16.9925 -16.9601 -16.9255 -16.8878 -16.8723 -16.8708 -16.8587
    10.4974  11.6370  11.9383  12.4064  12.7097  12.7307  12.7987  12.9447
    13.1222  13.2855  13.7187  13.7972  13.9163  13.9351  14.0047  14.0265
    14.0802  14.1644  14.2125  14.3104  14.4048  14.4231  14.5189  14.5737
    14.6479  14.6707  14.7078  14.7417  14.8017  14.9284  15.0217  15.0688
    15.1783  15.2854  15.7660  15.8607  15.9805  16.0839  16.1788  16.2545
    16.3890  16.4566  16.6777  16.7389  16.8093  16.8396  16.9677  17.0865
    17.2134  17.2468  17.3199  17.3785  17.4547  17.5720  17.7671  18.0318
    18.0729  18.1331

          k = 0.1667 0.4811 0.2061 (  4602 PWs)   bands (ev):

   -70.7370 -70.7254 -70.7060 -70.7052 -70.6824 -70.6743 -70.6743 -70.6701
   -40.7500 -40.7443 -40.7277 -40.7218 -36.8680 -36.8410 -36.7659 -36.7425
   -36.6866 -36.6732 -36.6681 -36.6461 -36.6366 -36.6245 -36.5978 -36.5955
   -36.5712 -36.5708 -36.5347 -36.5319 -36.5072 -36.4949 -36.4860 -36.4856
   -36.4771 -36.4639 -36.4567 -36.4527 -17.0861 -17.0808 -17.0765 -17.0718
   -17.0227 -17.0062 -16.9466 -16.9284 -16.8851 -16.8749 -16.8693 -16.8614
    10.6815  11.3344  11.9494  12.2787  12.7026  12.7668  12.9190  12.9560
    13.2797  13.3535  13.5979  13.6632  13.9373  13.9638  14.0072  14.0429
    14.0877  14.1631  14.1767  14.2704  14.3758  14.4160  14.4911  14.5108
    14.6077  14.6637  14.7138  14.7590  14.8818  14.9939  15.1074  15.1747
    15.3415  15.4448  15.7545  15.7753  15.8477  15.9644  16.1317  16.2114
    16.2634  16.3573  16.7106  16.7533  16.7883  16.8786  16.9673  17.0923
    17.1676  17.2453  17.3470  17.3985  17.4405  17.5965  17.7914  17.9513
    18.0937  18.2563

          k = 0.1667 0.4811-0.3091 (  4606 PWs)   bands (ev):

   -70.7318 -70.7318 -70.7058 -70.7058 -70.6755 -70.6755 -70.6743 -70.6743
   -40.7476 -40.7476 -40.7244 -40.7244 -36.8577 -36.8577 -36.7527 -36.7527
   -36.6717 -36.6717 -36.6619 -36.6619 -36.6395 -36.6395 -36.5987 -36.5987
   -36.5734 -36.5734 -36.5253 -36.5253 -36.4995 -36.4995 -36.4885 -36.4885
   -36.4701 -36.4701 -36.4554 -36.4554 -17.0814 -17.0814 -17.0755 -17.0755
   -17.0170 -17.0170 -16.9356 -16.9356 -16.8803 -16.8803 -16.8653 -16.8653
    10.9728  10.9728  12.0997  12.0997  12.7412  12.7412  12.9586  12.9586
    13.4427  13.4427  13.5005  13.5005  13.9607  13.9607  14.0061  14.0061
    14.1300  14.1300  14.2367  14.2367  14.3859  14.3859  14.4976  14.4976
    14.6176  14.6176  14.7254  14.7254  14.9506  14.9506  15.1964  15.1964
    15.5612  15.5612  15.7195  15.7195  15.7874  15.7874  16.1119  16.1119
    16.2958  16.2958  16.7430  16.7430  16.8274  16.8274  17.0238  17.0238
    17.2035  17.2035  17.3779  17.3779  17.5427  17.5427  17.8665  17.8665
    18.1323  18.1323

          k = 0.3333 0.5774 0.0000 (  4587 PWs)   bands (ev):

   -70.7375 -70.7105 -70.7105 -70.7020 -70.7006 -70.6743 -70.6743 -70.6650
   -40.7438 -40.7438 -40.7282 -40.7282 -36.8376 -36.7977 -36.7698 -36.7698
   -36.7229 -36.6823 -36.6823 -36.6217 -36.6217 -36.5902 -36.5898 -36.5898
   -36.5716 -36.5716 -36.5619 -36.5119 -36.5040 -36.5040 -36.4930 -36.4930
   -36.4810 -36.4688 -36.4688 -36.4502 -17.0949 -17.0803 -17.0803 -17.0771
   -16.9974 -16.9974 -16.9522 -16.9522 -16.8782 -16.8782 -16.8689 -16.8531
    11.0431  11.7974  11.7974  12.5785  12.6117  12.8001  12.8001  12.8583
    12.8583  13.1954  13.9063  13.9063  13.9801  13.9801  14.0947  14.0947
    14.1038  14.1457  14.1789  14.1789  14.2046  14.3901  14.4378  14.4378
    14.6281  14.6480  14.6480  14.7281  14.7281  15.0242  15.0242  15.1052
    15.1218  15.2006  15.8145  15.8145  15.8490  15.8841  15.8841  16.1165
    16.6747  16.6747  16.6790  16.6790  16.9548  16.9548  17.0550  17.0550
    17.0773  17.2390  17.4082  17.4926  17.4926  17.5614  17.8900  17.8900
    17.9484  18.0669

          k = 0.3333 0.5774 0.1030 (  4563 PWs)   bands (ev):

   -70.7363 -70.7107 -70.7105 -70.7105 -70.6919 -70.6743 -70.6743 -70.6662
   -40.7438 -40.7438 -40.7282 -40.7282 -36.8326 -36.8003 -36.7662 -36.7662
   -36.7148 -36.6756 -36.6756 -36.6167 -36.6167 -36.6039 -36.5977 -36.5977
   -36.5597 -36.5597 -36.5434 -36.5121 -36.5022 -36.5022 -36.4911 -36.4911
   -36.4742 -36.4660 -36.4660 -36.4465 -17.0937 -17.0791 -17.0791 -17.0784
   -17.0011 -17.0011 -16.9488 -16.9488 -16.8791 -16.8791 -16.8678 -16.8541
    11.0991  11.8416  11.8416  12.2031  12.6816  12.6816  12.9385  12.9385
    13.0077  13.2308  13.8763  13.8763  13.9669  14.0397  14.0397  14.0671
    14.0931  14.0931  14.1703  14.1703  14.2865  14.3426  14.3426  14.3575
    14.6018  14.6018  14.6735  14.8824  14.8824  15.0384  15.0384  15.0519
    15.2115  15.2765  15.7369  15.7369  15.8203  15.9638  15.9638  16.0637
    16.5232  16.5232  16.7424  16.7424  16.9359  16.9359  17.0687  17.1072
    17.1072  17.2721  17.3134  17.4825  17.4825  17.5595  17.8900  17.8900
    18.0619  18.0620

          k = 0.3333 0.5774 0.2061 (  4596 PWs)   bands (ev):

   -70.7327 -70.7194 -70.7105 -70.7105 -70.6832 -70.6743 -70.6743 -70.6698
   -40.7439 -40.7439 -40.7281 -40.7281 -36.8378 -36.8131 -36.7690 -36.7690
   -36.6946 -36.6752 -36.6752 -36.6395 -36.6280 -36.6280 -36.6083 -36.6083
   -36.5502 -36.5502 -36.5290 -36.5180 -36.5030 -36.5030 -36.4952 -36.4952
   -36.4774 -36.4774 -36.4721 -36.4541 -17.0906 -17.0818 -17.0765 -17.0765
   -17.0079 -17.0079 -16.9427 -16.9427 -16.8811 -16.8811 -16.8647 -16.8568
    11.2515  11.8268  11.9407  11.9407  12.5161  12.5161  12.9903  12.9903
    13.3336  13.3588  13.7347  13.8507  13.8507  13.9381  14.0420  14.0420
    14.0946  14.0946  14.1999  14.1999  14.2770  14.2770  14.2864  14.2982
    14.5489  14.5489  14.7734  14.9121  14.9121  14.9788  15.2076  15.2076
    15.3622  15.4501  15.6252  15.6252  15.7273  15.9195  16.0477  16.0477
    16.3478  16.3478  16.7534  16.7534  16.9262  16.9262  17.0617  17.1736
    17.1746  17.1746  17.3545  17.4422  17.4422  17.5276  17.9048  17.9048
    18.0219  18.0219

          k = 0.3333 0.5774-0.3091 (  4590 PWs)   bands (ev):

   -70.7269 -70.7269 -70.7105 -70.7105 -70.6756 -70.6756 -70.6743 -70.6743
   -40.7440 -40.7440 -40.7281 -40.7280 -36.8285 -36.8285 -36.7699 -36.7699
   -36.6691 -36.6691 -36.6669 -36.6669 -36.6404 -36.6404 -36.6060 -36.6060
   -36.5428 -36.5428 -36.5206 -36.5206 -36.5024 -36.5024 -36.4932 -36.4932
   -36.4809 -36.4809 -36.4578 -36.4578 -17.0863 -17.0863 -17.0751 -17.0751
   -17.0111 -17.0111 -16.9399 -16.9399 -16.8821 -16.8821 -16.8607 -16.8607
    11.5026  11.5026  12.0171  12.0171  12.4198  12.4198  13.0069  13.0069
    13.4873  13.4873  13.7135  13.7135  13.8426  13.8426  14.0212  14.0212
    14.0837  14.0837  14.2401  14.2401  14.2746  14.2746  14.2817  14.2817
    14.5191  14.5191  14.8819  14.8819  14.8896  14.8896  15.3619  15.3619
    15.5168  15.5168  15.5257  15.5257  15.7324  15.7324  16.0806  16.0806
    16.2730  16.2730  16.7529  16.7529  16.9267  16.9267  17.0899  17.0899
    17.2091  17.2091  17.4114  17.4114  17.4517  17.4517  17.9175  17.9175
    17.9954  17.9954

     the Fermi energy is    16.2903 ev

!    total energy              =   -3110.70229974 Ry
     estimated scf accuracy    <          5.7E-10 Ry
     smearing contrib. (-TS)   =       0.00002262 Ry
     internal energy E=F+TS    =   -3110.70232236 Ry

     The total energy is F=E-TS. E is the sum of the following terms:
     one-electron contribution =   -1208.94353664 Ry
     hartree contribution      =     699.49127741 Ry
     xc contribution           =    -349.55427563 Ry
     ewald contribution        =   -1642.60130587 Ry
     one-center paw contrib.   =    -609.09448163 Ry

     convergence has been achieved in  27 iterations

     negative rho (up, down):  4.365E-03 0.000E+00

     Forces acting on atoms (cartesian axes, Ry/au):

     atom    1 type  1   force =    -0.01541918    0.00890227    0.00000000
     atom    2 type  1   force =     0.01541918   -0.00890227    0.00000000
     atom    3 type  1   force =     0.00000000    0.01780454    0.00000000
     atom    4 type  1   force =     0.01541918    0.00890227    0.00000000
     atom    5 type  1   force =    -0.00000000   -0.01780454   -0.00000000
     atom    6 type  1   force =    -0.01541918   -0.00890227   -0.00000000
     atom    7 type  1   force =     0.00000000   -0.00000000    0.00000000
     atom    8 type  1   force =    -0.00000000   -0.00000000    0.00000000
     atom    9 type  2   force =    -0.00000000   -0.00000000   -0.01001910
     atom   10 type  2   force =     0.00000000    0.00000000   -0.01001910
     atom   11 type  2   force =    -0.00000000    0.00000000    0.01001910
     atom   12 type  2   force =    -0.00000000    0.00000000    0.01001910

     Total force =     0.047995     Total SCF correction =     0.000011


     Computing stress (Cartesian axis) and pressure


     negative rho (up, down):  4.365E-03 0.000E+00
          total   stress  (Ry/bohr**3)                   (kbar)     P=     -433.74
  -0.00302407   0.00000000   0.00000000         -444.86        0.00        0.00
   0.00000000  -0.00302407   0.00000000            0.00     -444.86        0.00
   0.00000000   0.00000000  -0.00279744            0.00        0.00     -411.52


     Writing all to output data dir ./FeAl.save/ :
     XML data file, charge density, pseudopotentials, collected wavefunctions

     init_run     :      2.00s CPU      2.05s WALL (       1 calls)
     electrons    :     98.32s CPU     99.56s WALL (       1 calls)
     forces       :      0.29s CPU      0.29s WALL (       1 calls)
     stress       :      1.06s CPU      1.07s WALL (       1 calls)

     Called by init_run:
     wfcinit      :      1.22s CPU      1.25s WALL (       1 calls)
     potinit      :      0.50s CPU      0.51s WALL (       1 calls)
     hinit0       :      0.24s CPU      0.25s WALL (       1 calls)

     Called by electrons:
     c_bands      :     85.01s CPU     85.96s WALL (      27 calls)
     sum_band     :      7.84s CPU      8.01s WALL (      27 calls)
     v_of_rho     :      0.11s CPU      0.11s WALL (      28 calls)
     newd         :      0.49s CPU      0.49s WALL (      28 calls)
     PAW_pot      :      5.03s CPU      5.07s WALL (      28 calls)
     mix_rho      :      0.03s CPU      0.03s WALL (      27 calls)

     Called by c_bands:
     init_us_2    :      0.37s CPU      0.37s WALL (    1596 calls)
     cegterg      :     82.88s CPU     83.81s WALL (     756 calls)

     Called by *egterg:
     cdiaghg      :     34.60s CPU     34.74s WALL (    2755 calls)
     h_psi        :     32.16s CPU     32.88s WALL (    2783 calls)
     s_psi        :      2.52s CPU      2.54s WALL (    2783 calls)
     g_psi        :      0.12s CPU      0.12s WALL (    1999 calls)

     Called by h_psi:
     h_psi:calbec :      4.71s CPU      4.77s WALL (    2783 calls)
     vloc_psi     :     24.75s CPU     25.40s WALL (    2783 calls)
     add_vuspsi   :      2.59s CPU      2.61s WALL (    2783 calls)

     General routines
     calbec       :      7.34s CPU      7.42s WALL (    4015 calls)
     fft          :      0.28s CPU      0.28s WALL (     387 calls)
     ffts         :      0.32s CPU      0.33s WALL (      55 calls)
     fftw         :     26.89s CPU     27.60s WALL (  476972 calls)
     interpolate  :      0.33s CPU      0.33s WALL (      28 calls)

     Parallel routines

     PWSCF        :    102.25s CPU    106.48s WALL


   This run was terminated on:  14:38:36  27Oct2025            

=------------------------------------------------------------------------------=
   JOB DONE.
=------------------------------------------------------------------------------=
Note: The following floating-point exceptions are signalling: IEEE_UNDERFLOW_FLAG IEEE_DENORMAL
Note: The following floating-point exceptions are signalling: IEEE_UNDERFLOW_FLAG IEEE_DENORMAL
Note: The following floating-point exceptions are signalling: IEEE_UNDERFLOW_FLAG IEEE_DENORMAL
Note: The following floating-point exceptions are signalling: IEEE_UNDERFLOW_FLAG IEEE_DENORMAL
Note: The following floating-point exceptions are signalling: IEEE_UNDERFLOW_FLAG IEEE_DENORMAL
Note: The following floating-point exceptions are signalling: IEEE_UNDERFLOW_FLAG IEEE_DENORMAL
Note: The following floating-point exceptions are signalling: IEEE_UNDERFLOW_FLAG IEEE_DENORMAL
Note: The following floating-point exceptions are signalling: IEEE_UNDERFLOW_FLAG IEEE_DENORMAL
Note: The following floating-point exceptions are signalling: IEEE_UNDERFLOW_FLAG IEEE_DENORMAL
Note: The following floating-point exceptions are signalling: IEEE_UNDERFLOW_FLAG IEEE_DENORMAL
Note: The following floating-point exceptions are signalling: IEEE_UNDERFLOW_FLAG IEEE_DENORMAL
Note: The following floating-point exceptions are signalling: IEEE_UNDERFLOW_FLAG IEEE_DENORMAL
Note: The following floating-point exceptions are signalling: IEEE_UNDERFLOW_FLAG IEEE_DENORMAL
Note: The following floating-point exceptions are signalling: IEEE_UNDERFLOW_FLAG IEEE_DENORMAL
Note: The following floating-point exceptions are signalling: IEEE_UNDERFLOW_FLAG IEEE_DENORMAL
Note: The following floating-point exceptions are signalling: IEEE_UNDERFLOW_FLAG IEEE_DENORMAL
