
     Program PWSCF v.7.4 starts on 27Oct2025 at 14:58:27 

     This program is part of the open-source Quantum ESPRESSO suite
     for quantum simulation of materials; please cite
         "P. Giannozzi et al., J. Phys.:Condens. Matter 21 395502 (2009);
         "P. Giannozzi et al., J. Phys.:Condens. Matter 29 465901 (2017);
         "P. Giannozzi et al., J. Chem. Phys. 152 154105 (2020);
          URL http://www.quantum-espresso.org", 
     in publications or presentations arising from this work. More details at
     http://www.quantum-espresso.org/quote

     Parallel version (MPI & OpenMP), running on      16 processor cores
     Number of MPI processes:                16
     Threads/MPI process:                     1

     MPI processes distributed on     1 nodes
     228414 MiB available memory on the printing compute node when the environment starts

     Reading input from TiFe2_ecutwfc_convergence/TiFe2_ecut110.in

     Current dimensions of program PWSCF are:
     Max number of different atomic species (ntypx) = 10
     Max number of k-points (npk) =  40000
     Max angular momentum in pseudopotentials (lmaxx) =  4
     file Fe.pbe-spn-kjpaw_psl.0.2.1.UPF: wavefunction(s)  3D renormalized

     IMPORTANT: XC functional enforced from input :
     Exchange-correlation= PBE
                           (   1   4   3   4   0   0   0)
     Any further DFT definition will be discarded
     Please, verify this is what you really want

     Message from routine setup:
     using ibrav=0 with symmetry is DISCOURAGED, use correct ibrav instead

     R & G space division:  proc/nbgrp/npool/nimage =      16
     Subspace diagonalization in iterative solution of the eigenvalue problem:
     a serial algorithm will be used


     Parallelization info
     --------------------
     sticks:   dense  smooth     PW     G-vecs:    dense   smooth      PW
     Min         199     158     43                14627    10472    1506
     Max         203     161     44                14629    10475    1511
     Sum        3193    2539    691               234051   167577   24117

     Using Slab Decomposition



     bravais-lattice index     =            0
     lattice parameter (alat)  =       9.1568  a.u.
     unit-cell volume          =    1075.5644 (a.u.)^3
     number of atoms/cell      =           12
     number of atomic types    =            2
     number of electrons       =       176.00
     number of Kohn-Sham states=          106
     kinetic-energy cutoff     =     110.0000  Ry
     charge density cutoff     =     550.0000  Ry
     scf convergence threshold =      1.0E-08
     mixing beta               =       0.7000
     number of iterations used =            8  plain     mixing
     Exchange-correlation= PBE
                           (   1   4   3   4   0   0   0)

     celldm(1)=   9.156781  celldm(2)=   0.000000  celldm(3)=   0.000000
     celldm(4)=   0.000000  celldm(5)=   0.000000  celldm(6)=   0.000000

     crystal axes: (cart. coord. in units of alat)
               a(1) = (   1.000000   0.000000   0.000000 )  
               a(2) = (  -0.500000   0.866025   0.000000 )  
               a(3) = (   0.000000   0.000000   1.617623 )  

     reciprocal axes: (cart. coord. in units 2 pi/alat)
               b(1) = (  1.000000  0.577350 -0.000000 )  
               b(2) = (  0.000000  1.154701  0.000000 )  
               b(3) = (  0.000000 -0.000000  0.618191 )  


     PseudoPot. # 1 for Fe read from file:
     ./Fe.pbe-spn-kjpaw_psl.0.2.1.UPF
     MD5 check sum: e86618425769142926afa95317d90200
     Pseudo is Projector augmented-wave + core cor, Zval = 16.0
     Generated using "atomic" code by A. Dal Corso  v.5.0.99 svn rev. 10869
     Shape of augmentation charge: PSQ
     Using radial grid of 1191 points,  6 beta functions with: 
                l(1) =   0
                l(2) =   0
                l(3) =   1
                l(4) =   1
                l(5) =   2
                l(6) =   2
     Q(r) pseudized with 0 coefficients 


     PseudoPot. # 2 for Ti read from file:
     ./Ti_pbe_v1.4.uspp.F.UPF
     MD5 check sum: 88a00a6731bd790ddea75d31a80cb452
     Pseudo is Ultrasoft + core correction, Zval = 12.0
     Generated by new atomic code, or converted to UPF format
     Using radial grid of  851 points,  6 beta functions with: 
                l(1) =   0
                l(2) =   0
                l(3) =   1
                l(4) =   1
                l(5) =   2
                l(6) =   2
     Q(r) pseudized with  6 coefficients,  rinner =    1.000   1.000   1.000
                                                       1.000   1.000

     atomic species   valence    mass     pseudopotential
     Fe               16.00    55.84500     Fe( 1.00)
     Ti               12.00    47.86700     Ti( 1.00)

     24 Sym. Ops., with inversion, found (12 have fractional translation)



   Cartesian axes

     site n.     atom                  positions (alat units)
         1        Fe     tau(   1) = (   0.7465670   0.1463196   0.4044057  )
         2        Fe     tau(   2) = (  -0.2465670   0.7197058   1.2132171  )
         3        Fe     tau(   3) = (  -0.0000000   0.2926392   1.2132171  )
         4        Fe     tau(   4) = (   0.2534330   0.1463196   0.4044057  )
         5        Fe     tau(   5) = (   0.5000000   0.5733862   0.4044057  )
         6        Fe     tau(   6) = (   0.2465670   0.7197058   1.2132171  )
         7        Fe     tau(   7) = (   0.0000000   0.0000000   0.0000000  )
         8        Fe     tau(   8) = (   0.0000000   0.0000000   0.8088114  )
         9        Ti     tau(   9) = (   0.5000000   0.2886751   1.5200090  )
        10        Ti     tau(  10) = (  -0.0000000   0.5773503   0.7111976  )
        11        Ti     tau(  11) = (  -0.0000000   0.5773503   0.0976138  )
        12        Ti     tau(  12) = (   0.5000000   0.2886751   0.9064252  )

     number of k points=    28  Marzari-Vanderbilt smearing, width (Ry)=  0.0050
                       cart. coord. in units 2pi/alat
        k(    1) = (   0.0000000   0.0000000   0.0000000), wk =   0.0092593
        k(    2) = (   0.0000000   0.0000000   0.1030318), wk =   0.0185185
        k(    3) = (   0.0000000   0.0000000   0.2060637), wk =   0.0185185
        k(    4) = (   0.0000000   0.0000000  -0.3090955), wk =   0.0092593
        k(    5) = (   0.0000000   0.1924501   0.0000000), wk =   0.0555556
        k(    6) = (   0.0000000   0.1924501   0.1030318), wk =   0.1111111
        k(    7) = (   0.0000000   0.1924501   0.2060637), wk =   0.1111111
        k(    8) = (   0.0000000   0.1924501  -0.3090955), wk =   0.0555556
        k(    9) = (   0.0000000   0.3849002   0.0000000), wk =   0.0555556
        k(   10) = (   0.0000000   0.3849002   0.1030318), wk =   0.1111111
        k(   11) = (   0.0000000   0.3849002   0.2060637), wk =   0.1111111
        k(   12) = (   0.0000000   0.3849002  -0.3090955), wk =   0.0555556
        k(   13) = (   0.0000000  -0.5773503   0.0000000), wk =   0.0277778
        k(   14) = (   0.0000000  -0.5773503   0.1030318), wk =   0.0555556
        k(   15) = (   0.0000000  -0.5773503   0.2060637), wk =   0.0555556
        k(   16) = (   0.0000000  -0.5773503  -0.3090955), wk =   0.0277778
        k(   17) = (   0.1666667   0.2886751   0.0000000), wk =   0.0555556
        k(   18) = (   0.1666667   0.2886751   0.1030318), wk =   0.1111111
        k(   19) = (   0.1666667   0.2886751   0.2060637), wk =   0.1111111
        k(   20) = (   0.1666667   0.2886751  -0.3090955), wk =   0.0555556
        k(   21) = (   0.1666667   0.4811252   0.0000000), wk =   0.1111111
        k(   22) = (   0.1666667   0.4811252   0.1030318), wk =   0.2222222
        k(   23) = (   0.1666667   0.4811252   0.2060637), wk =   0.2222222
        k(   24) = (   0.1666667   0.4811252  -0.3090955), wk =   0.1111111
        k(   25) = (   0.3333333   0.5773503   0.0000000), wk =   0.0185185
        k(   26) = (   0.3333333   0.5773503   0.1030318), wk =   0.0370370
        k(   27) = (   0.3333333   0.5773503   0.2060637), wk =   0.0370370
        k(   28) = (   0.3333333   0.5773503  -0.3090955), wk =   0.0185185

     Dense  grid:   234051 G-vectors     FFT dimensions: (  72,  72, 120)

     Smooth grid:   167577 G-vectors     FFT dimensions: (  64,  64, 100)

     Estimated max dynamical RAM per process >     125.39 MB

     Estimated total dynamical RAM >       1.96 GB

     Check: negative core charge=   -0.000038

     Initial potential from superposition of free atoms

     starting charge     171.9963, renormalised to     176.0000

     negative rho (up, down):  5.108E-03 0.000E+00
     Starting wfcs are  144 randomized atomic wfcs
     Checking if some PAW data can be deallocated... 

     total cpu time spent up to now is        5.4 secs

     per-process dynamical memory:   190.5 Mb

     Self-consistent Calculation

     iteration #  1     ecut=   110.00 Ry     beta= 0.70
     Davidson diagonalization with overlap
     ethr =  1.00E-02,  avg # of iterations =  2.0

     negative rho (up, down):  7.572E-04 0.000E+00

     total cpu time spent up to now is       14.7 secs

     total energy              =   -3017.04044403 Ry
     estimated scf accuracy    <     116.53210837 Ry

     iteration #  2     ecut=   110.00 Ry     beta= 0.70
     Davidson diagonalization with overlap
     ethr =  1.00E-02,  avg # of iterations =  6.7

     total cpu time spent up to now is       33.6 secs

     total energy              =   -3075.96958859 Ry
     estimated scf accuracy    <     699.68929056 Ry

     iteration #  3     ecut=   110.00 Ry     beta= 0.70
     Davidson diagonalization with overlap
     ethr =  1.00E-02,  avg # of iterations =  5.1

     total cpu time spent up to now is       48.0 secs

     total energy              =   -3120.91979288 Ry
     estimated scf accuracy    <      91.37656394 Ry

     iteration #  4     ecut=   110.00 Ry     beta= 0.70
     Davidson diagonalization with overlap
     ethr =  1.00E-02,  avg # of iterations =  1.3

     negative rho (up, down):  9.299E-06 0.000E+00

     total cpu time spent up to now is       55.5 secs

     total energy              =   -3116.48978172 Ry
     estimated scf accuracy    <      54.31577287 Ry

     iteration #  5     ecut=   110.00 Ry     beta= 0.70
     Davidson diagonalization with overlap
     ethr =  1.00E-02,  avg # of iterations =  1.8

     negative rho (up, down):  1.637E-04 0.000E+00

     total cpu time spent up to now is       63.3 secs

     total energy              =   -3115.18651800 Ry
     estimated scf accuracy    <      41.77012388 Ry

     iteration #  6     ecut=   110.00 Ry     beta= 0.70
     Davidson diagonalization with overlap
     ethr =  1.00E-02,  avg # of iterations =  1.0

     negative rho (up, down):  4.424E-04 0.000E+00

     total cpu time spent up to now is       70.5 secs

     total energy              =   -3113.66465068 Ry
     estimated scf accuracy    <      25.99890798 Ry

     iteration #  7     ecut=   110.00 Ry     beta= 0.70
     Davidson diagonalization with overlap
     ethr =  1.00E-02,  avg # of iterations =  1.0

     negative rho (up, down):  1.157E-03 0.000E+00

     total cpu time spent up to now is       77.7 secs

     total energy              =   -3111.33921487 Ry
     estimated scf accuracy    <      18.29953207 Ry

     iteration #  8     ecut=   110.00 Ry     beta= 0.70
     Davidson diagonalization with overlap
     ethr =  1.00E-02,  avg # of iterations =  1.0

     negative rho (up, down):  1.328E-03 0.000E+00

     total cpu time spent up to now is       85.0 secs

     total energy              =   -3111.48212338 Ry
     estimated scf accuracy    <       6.13541347 Ry

     iteration #  9     ecut=   110.00 Ry     beta= 0.70
     Davidson diagonalization with overlap
     ethr =  3.49E-03,  avg # of iterations =  1.8

     negative rho (up, down):  1.841E-03 0.000E+00

     total cpu time spent up to now is       92.9 secs

     total energy              =   -3111.24002179 Ry
     estimated scf accuracy    <       4.35865424 Ry

     iteration # 10     ecut=   110.00 Ry     beta= 0.70
     Davidson diagonalization with overlap
     ethr =  2.48E-03,  avg # of iterations =  2.1

     negative rho (up, down):  4.519E-03 0.000E+00

     total cpu time spent up to now is      101.0 secs

     total energy              =   -3110.91990577 Ry
     estimated scf accuracy    <       1.51508072 Ry

     iteration # 11     ecut=   110.00 Ry     beta= 0.70
     Davidson diagonalization with overlap
     ethr =  8.61E-04,  avg # of iterations =  5.4

     negative rho (up, down):  3.475E-03 0.000E+00

     total cpu time spent up to now is      114.0 secs

     total energy              =   -3111.29287815 Ry
     estimated scf accuracy    <       6.89386265 Ry

     iteration # 12     ecut=   110.00 Ry     beta= 0.70
     Davidson diagonalization with overlap
     ethr =  8.61E-04,  avg # of iterations =  1.1

     negative rho (up, down):  1.625E-03 0.000E+00

     total cpu time spent up to now is      121.3 secs

     total energy              =   -3111.10937817 Ry
     estimated scf accuracy    <       1.46846055 Ry

     iteration # 13     ecut=   110.00 Ry     beta= 0.70
     Davidson diagonalization with overlap
     ethr =  8.34E-04,  avg # of iterations =  3.1

     negative rho (up, down):  2.366E-03 0.000E+00

     total cpu time spent up to now is      130.7 secs

     total energy              =   -3111.39597152 Ry
     estimated scf accuracy    <       1.28891983 Ry

     iteration # 14     ecut=   110.00 Ry     beta= 0.70
     Davidson diagonalization with overlap
     ethr =  7.32E-04,  avg # of iterations =  1.0

     negative rho (up, down):  2.843E-03 0.000E+00

     total cpu time spent up to now is      137.9 secs

     total energy              =   -3111.33421235 Ry
     estimated scf accuracy    <       0.80294937 Ry

     iteration # 15     ecut=   110.00 Ry     beta= 0.70
     Davidson diagonalization with overlap
     ethr =  4.56E-04,  avg # of iterations =  1.2

     negative rho (up, down):  2.908E-03 0.000E+00

     total cpu time spent up to now is      145.4 secs

     total energy              =   -3111.35091772 Ry
     estimated scf accuracy    <       0.10916347 Ry

     iteration # 16     ecut=   110.00 Ry     beta= 0.70
     Davidson diagonalization with overlap
     ethr =  6.20E-05,  avg # of iterations =  2.9

     negative rho (up, down):  2.943E-03 0.000E+00

     total cpu time spent up to now is      153.6 secs

     total energy              =   -3111.35163226 Ry
     estimated scf accuracy    <       0.06167643 Ry

     iteration # 17     ecut=   110.00 Ry     beta= 0.70
     Davidson diagonalization with overlap
     ethr =  3.50E-05,  avg # of iterations =  2.4

     negative rho (up, down):  3.055E-03 0.000E+00

     total cpu time spent up to now is      161.5 secs

     total energy              =   -3111.34773360 Ry
     estimated scf accuracy    <       0.06396411 Ry

     iteration # 18     ecut=   110.00 Ry     beta= 0.70
     Davidson diagonalization with overlap
     ethr =  3.50E-05,  avg # of iterations =  1.4

     negative rho (up, down):  3.157E-03 0.000E+00

     total cpu time spent up to now is      169.1 secs

     total energy              =   -3111.34683649 Ry
     estimated scf accuracy    <       0.01819265 Ry

     iteration # 19     ecut=   110.00 Ry     beta= 0.70
     Davidson diagonalization with overlap
     ethr =  1.03E-05,  avg # of iterations =  5.6

     negative rho (up, down):  3.161E-03 0.000E+00

     total cpu time spent up to now is      179.0 secs

     total energy              =   -3111.34827062 Ry
     estimated scf accuracy    <       0.00001262 Ry

     iteration # 20     ecut=   110.00 Ry     beta= 0.70
     Davidson diagonalization with overlap
     ethr =  7.17E-09,  avg # of iterations = 12.2

     negative rho (up, down):  3.167E-03 0.000E+00

     total cpu time spent up to now is      212.1 secs

     total energy              =   -3111.34853343 Ry
     estimated scf accuracy    <       0.00010598 Ry

     iteration # 21     ecut=   110.00 Ry     beta= 0.70
     Davidson diagonalization with overlap
     ethr =  7.17E-09,  avg # of iterations =  1.2

     negative rho (up, down):  3.166E-03 0.000E+00

     total cpu time spent up to now is      219.6 secs

     total energy              =   -3111.34853178 Ry
     estimated scf accuracy    <       0.00005094 Ry

     iteration # 22     ecut=   110.00 Ry     beta= 0.70
     Davidson diagonalization with overlap
     ethr =  7.17E-09,  avg # of iterations =  1.5

     negative rho (up, down):  3.169E-03 0.000E+00

     total cpu time spent up to now is      227.2 secs

     total energy              =   -3111.34853355 Ry
     estimated scf accuracy    <       0.00001527 Ry

     iteration # 23     ecut=   110.00 Ry     beta= 0.70
     Davidson diagonalization with overlap
     ethr =  7.17E-09,  avg # of iterations =  1.0

     negative rho (up, down):  3.166E-03 0.000E+00

     total cpu time spent up to now is      234.4 secs

     total energy              =   -3111.34853092 Ry
     estimated scf accuracy    <       0.00003873 Ry

     iteration # 24     ecut=   110.00 Ry     beta= 0.70
     Davidson diagonalization with overlap
     ethr =  7.17E-09,  avg # of iterations =  1.5

     negative rho (up, down):  3.166E-03 0.000E+00

     total cpu time spent up to now is      242.1 secs

     total energy              =   -3111.34853128 Ry
     estimated scf accuracy    <       0.00000467 Ry

     iteration # 25     ecut=   110.00 Ry     beta= 0.70
     Davidson diagonalization with overlap
     ethr =  2.65E-09,  avg # of iterations =  3.9

     negative rho (up, down):  3.166E-03 0.000E+00

     total cpu time spent up to now is      251.5 secs

     total energy              =   -3111.34853187 Ry
     estimated scf accuracy    <       0.00000029 Ry

     iteration # 26     ecut=   110.00 Ry     beta= 0.70
     Davidson diagonalization with overlap
     ethr =  1.62E-10,  avg # of iterations =  5.0

     negative rho (up, down):  3.166E-03 0.000E+00

     total cpu time spent up to now is      263.2 secs

     total energy              =   -3111.34853193 Ry
     estimated scf accuracy    <       0.00000053 Ry

     iteration # 27     ecut=   110.00 Ry     beta= 0.70
     Davidson diagonalization with overlap
     ethr =  1.62E-10,  avg # of iterations =  1.2

     negative rho (up, down):  3.166E-03 0.000E+00

     total cpu time spent up to now is      270.6 secs

     total energy              =   -3111.34853193 Ry
     estimated scf accuracy    <       0.00000011 Ry

     iteration # 28     ecut=   110.00 Ry     beta= 0.70
     Davidson diagonalization with overlap
     ethr =  6.12E-11,  avg # of iterations =  2.0

     negative rho (up, down):  3.166E-03 0.000E+00

     total cpu time spent up to now is      278.6 secs

     End of self-consistent calculation

          k = 0.0000 0.0000 0.0000 ( 20893 PWs)   bands (ev):

   -70.7860 -70.7633 -70.7275 -70.7047 -70.7003 -70.7003 -70.7003 -70.7003
   -40.8833 -40.8691 -40.8338 -40.8185 -37.1899 -37.1201 -37.0111 -36.8922
   -36.8922 -36.8721 -36.8721 -36.8583 -36.8583 -36.7989 -36.7875 -36.7467
   -36.7467 -36.7439 -36.7439 -36.6455 -36.6434 -36.6434 -36.6422 -36.6422
   -36.6335 -36.6335 -36.6206 -36.6206 -17.1753 -17.1753 -17.1613 -17.1613
   -17.1600 -17.1583 -17.0194 -17.0164 -17.0021 -17.0021 -16.9875 -16.9875
     8.6175  10.6476  11.4210  12.0187  12.5087  12.6093  12.7683  12.7683
    12.9885  12.9885  13.1990  13.2936  13.3853  13.3853  13.8271  13.8271
    13.9654  13.9654  14.2074  14.2940  14.2940  14.3189  14.3189  14.7760
    14.7760  14.9081  15.3890  15.3890  15.5080  15.5080  15.8277  15.9117
    15.9117  15.9146  15.9146  16.0605  16.0638  16.0638  16.0712  16.1325
    16.1596  16.1596  16.2310  16.2767  16.2767  16.7290  16.7290  16.7446
    16.9879  16.9879  17.2871  17.2871  17.4909  17.4909  17.5138  17.5141
    17.7862  17.7862

          k = 0.0000 0.0000 0.1030 ( 21013 PWs)   bands (ev):

   -70.7849 -70.7656 -70.7252 -70.7058 -70.7003 -70.7003 -70.7003 -70.7003
   -40.8826 -40.8705 -40.8324 -40.8193 -37.1870 -37.1288 -36.9978 -36.8917
   -36.8917 -36.8768 -36.8768 -36.8505 -36.8505 -36.8375 -36.7703 -36.7703
   -36.7519 -36.7207 -36.7207 -36.6504 -36.6504 -36.6502 -36.6383 -36.6383
   -36.6336 -36.6336 -36.6206 -36.6206 -17.1745 -17.1745 -17.1623 -17.1623
   -17.1597 -17.1582 -17.0195 -17.0169 -17.0010 -17.0010 -16.9884 -16.9884
     8.6942  10.2975  11.7123  12.0193  12.4079  12.7816  12.7816  12.7991
    12.9708  12.9708  13.0471  13.3951  13.4119  13.4119  13.8040  13.8040
    13.9481  13.9481  14.1830  14.1830  14.2742  14.4630  14.4630  14.8317
    14.8317  14.9427  15.3153  15.3153  15.4197  15.4197  15.7041  15.8478
    15.9283  15.9283  16.0199  16.0199  16.0556  16.0556  16.0753  16.1284
    16.1642  16.1642  16.2164  16.2164  16.3672  16.7972  16.7972  16.9616
    16.9785  16.9785  17.2792  17.2792  17.4933  17.4933  17.5139  17.5141
    17.7696  17.7696

          k = 0.0000 0.0000 0.2061 ( 20990 PWs)   bands (ev):

   -70.7817 -70.7709 -70.7199 -70.7091 -70.7003 -70.7003 -70.7003 -70.7003
   -40.8805 -40.8736 -40.8290 -40.8216 -37.1782 -37.1466 -36.9662 -36.8901
   -36.8901 -36.8828 -36.8828 -36.8823 -36.8354 -36.8354 -36.7944 -36.7944
   -36.7160 -36.6979 -36.6979 -36.6639 -36.6621 -36.6621 -36.6359 -36.6359
   -36.6339 -36.6339 -36.6206 -36.6206 -17.1720 -17.1720 -17.1650 -17.1650
   -17.1589 -17.1580 -17.0194 -17.0179 -16.9982 -16.9982 -16.9909 -16.9909
     8.9208   9.7619  11.9820  12.0210  12.4581  12.8184  12.8184  12.8584
    12.9261  12.9261  13.0612  13.4122  13.4848  13.4848  13.7119  13.7119
    13.9586  13.9586  14.0861  14.0861  14.4995  14.6538  14.6538  14.9406
    14.9406  15.0279  15.1521  15.1521  15.2775  15.2775  15.4655  15.4909
    15.9604  15.9604  16.0257  16.0257  16.0811  16.0811  16.0864  16.1170
    16.1196  16.1196  16.3266  16.3266  16.6099  16.8000  16.8000  17.0139
    17.0139  17.2413  17.2413  17.3925  17.5139  17.5439  17.5439  17.5624
    17.7187  17.7187

          k = 0.0000 0.0000-0.3091 ( 20990 PWs)   bands (ev):

   -70.7767 -70.7767 -70.7140 -70.7140 -70.7003 -70.7003 -70.7003 -70.7003
   -40.8773 -40.8773 -40.8251 -40.8251 -37.1643 -37.1643 -36.9261 -36.9261
   -36.8872 -36.8872 -36.8872 -36.8872 -36.8164 -36.8164 -36.8164 -36.8164
   -36.6862 -36.6862 -36.6780 -36.6780 -36.6780 -36.6780 -36.6346 -36.6346
   -36.6346 -36.6346 -36.6206 -36.6206 -17.1686 -17.1686 -17.1686 -17.1686
   -17.1582 -17.1582 -17.0189 -17.0189 -16.9945 -16.9945 -16.9945 -16.9945
     9.2848   9.2848  12.0226  12.0226  12.6648  12.6648  12.8706  12.8706
    12.8706  12.8706  13.2878  13.2878  13.5911  13.5911  13.5911  13.5911
    14.0101  14.0101  14.0101  14.0101  14.8631  14.8631  14.8631  14.8631
    14.8717  14.8717  15.1480  15.1480  15.1480  15.1480  15.3165  15.3165
    16.0010  16.0010  16.0010  16.0010  16.0676  16.0676  16.0676  16.0676
    16.1017  16.1017  16.5876  16.5876  16.5876  16.5876  16.9830  16.9830
    17.1487  17.1487  17.1487  17.1487  17.5140  17.5140  17.6362  17.6362
    17.6362  17.6362

          k = 0.0000 0.1925 0.0000 ( 20933 PWs)   bands (ev):

   -70.7824 -70.7597 -70.7275 -70.7130 -70.7039 -70.7003 -70.7003 -70.6955
   -40.8806 -40.8662 -40.8369 -40.8215 -37.1684 -37.0988 -37.0085 -36.8911
   -36.8785 -36.8775 -36.8623 -36.8583 -36.8569 -36.7922 -36.7876 -36.7538
   -36.7467 -36.7447 -36.7441 -36.6600 -36.6547 -36.6509 -36.6466 -36.6434
   -36.6419 -36.6405 -36.6274 -36.6261 -17.1897 -17.1798 -17.1653 -17.1621
   -17.1570 -17.1374 -17.0357 -17.0123 -17.0073 -16.9979 -16.9833 -16.9798
     8.8834  10.8504  11.5992  12.1302  12.5487  12.6038  12.7139  12.8104
    12.9001  13.1527  13.1563  13.3960  13.4396  13.4677  13.7820  13.8802
    13.9658  14.0689  14.2443  14.2824  14.2950  14.3202  14.3663  14.6299
    14.6981  14.7103  15.0238  15.2171  15.2235  15.2786  15.4964  15.5668
    15.7634  15.8569  15.8795  15.9575  16.0029  16.0684  16.1143  16.1928
    16.2175  16.3000  16.3270  16.3558  16.4907  16.6269  16.8014  16.8951
    16.9053  17.0128  17.2894  17.3006  17.3346  17.5239  17.5426  17.5475
    17.5772  17.9174

          k = 0.0000 0.1925 0.1030 ( 20950 PWs)   bands (ev):

   -70.7813 -70.7620 -70.7255 -70.7134 -70.7036 -70.7003 -70.7003 -70.6963
   -40.8799 -40.8676 -40.8354 -40.8222 -37.1655 -37.1080 -36.9951 -36.8907
   -36.8835 -36.8781 -36.8656 -36.8543 -36.8465 -36.8298 -36.7745 -36.7697
   -36.7515 -36.7252 -36.7214 -36.6616 -36.6559 -36.6548 -36.6480 -36.6433
   -36.6428 -36.6419 -36.6272 -36.6261 -17.1882 -17.1789 -17.1663 -17.1656
   -17.1541 -17.1383 -17.0347 -17.0164 -17.0030 -16.9969 -16.9842 -16.9811
     8.9583  10.5147  11.8753  12.1312  12.4540  12.6568  12.7807  12.8294
    12.9360  13.1219  13.1309  13.3673  13.4705  13.5008  13.7765  13.8654
    13.9369  14.0352  14.1362  14.2175  14.3250  14.4430  14.5013  14.6903
    14.7323  14.7594  15.0249  15.1650  15.1824  15.2534  15.5062  15.5554
    15.6792  15.8069  15.8578  15.9271  16.0068  16.0368  16.1192  16.1692
    16.2034  16.2900  16.3050  16.3989  16.4984  16.6842  16.7875  16.9069
    16.9600  17.0946  17.2831  17.3223  17.3344  17.4692  17.5454  17.5717
    17.6242  17.8931

          k = 0.0000 0.1925 0.2061 ( 20967 PWs)   bands (ev):

   -70.7781 -70.7674 -70.7211 -70.7146 -70.7025 -70.7003 -70.7003 -70.6982
   -40.8778 -40.8709 -40.8319 -40.8245 -37.1571 -37.1261 -36.9646 -36.8991
   -36.8868 -36.8769 -36.8711 -36.8644 -36.8390 -36.8320 -36.7981 -36.7930
   -36.7187 -36.7050 -36.6991 -36.6671 -36.6648 -36.6628 -36.6500 -36.6479
   -36.6423 -36.6420 -36.6268 -36.6262 -17.1841 -17.1763 -17.1715 -17.1691
   -17.1496 -17.1410 -17.0319 -17.0220 -16.9966 -16.9940 -16.9867 -16.9848
     9.1792   9.9970  12.1183  12.1387  12.4823  12.6837  12.8034  12.8832
    13.0258  13.0486  13.1135  13.3673  13.5190  13.5508  13.7010  13.7862
    13.9476  14.0174  14.0587  14.1253  14.4497  14.6542  14.6740  14.7854
    14.8341  14.8398  14.9906  15.0771  15.0953  15.1731  15.3493  15.4348
    15.6712  15.8064  15.8564  15.8935  15.9197  16.0230  16.0548  16.0955
    16.1991  16.2943  16.3275  16.5045  16.5574  16.6863  16.7346  16.8209
    17.0744  17.2450  17.2647  17.3436  17.3928  17.5122  17.5387  17.6165
    17.6225  17.8237

          k = 0.0000 0.1925-0.3091 ( 21010 PWs)   bands (ev):

   -70.7732 -70.7732 -70.7172 -70.7172 -70.7006 -70.7006 -70.7003 -70.7003
   -40.8747 -40.8747 -40.8279 -40.8279 -37.1436 -37.1436 -36.9287 -36.9287
   -36.8812 -36.8812 -36.8747 -36.8747 -36.8200 -36.8200 -36.8140 -36.8140
   -36.6976 -36.6976 -36.6799 -36.6799 -36.6724 -36.6724 -36.6500 -36.6500
   -36.6421 -36.6421 -36.6264 -36.6264 -17.1781 -17.1781 -17.1728 -17.1728
   -17.1450 -17.1450 -17.0274 -17.0274 -16.9903 -16.9903 -16.9902 -16.9902
     9.5337   9.5337  12.1421  12.1421  12.6257  12.6257  12.8922  12.8922
    12.9617  12.9617  13.2864  13.2864  13.5867  13.5867  13.6634  13.6634
    14.0007  14.0007  14.0563  14.0563  14.6718  14.6718  14.8186  14.8186
    14.8840  14.8840  14.9547  14.9547  15.0946  15.0946  15.2743  15.2743
    15.7856  15.7856  15.8455  15.8455  15.9248  15.9248  16.0536  16.0536
    16.2479  16.2479  16.4868  16.4868  16.6492  16.6492  16.6859  16.6859
    17.1768  17.1768  17.3491  17.3491  17.4714  17.4714  17.5378  17.5378
    17.7224  17.7224

          k = 0.0000 0.3849 0.0000 ( 20948 PWs)   bands (ev):

   -70.7738 -70.7504 -70.7275 -70.7252 -70.7132 -70.7003 -70.7003 -70.6921
   -40.8734 -40.8586 -40.8447 -40.8291 -37.1163 -37.0477 -37.0033 -36.9066
   -36.8760 -36.8684 -36.8584 -36.8443 -36.8162 -36.7877 -36.7828 -36.7642
   -36.7481 -36.7467 -36.7450 -36.7158 -36.6878 -36.6871 -36.6737 -36.6534
   -36.6433 -36.6320 -36.6317 -36.6281 -17.1985 -17.1881 -17.1727 -17.1711
   -17.1470 -17.1097 -17.0613 -17.0190 -17.0029 -16.9902 -16.9754 -16.9738
     9.6318  11.3547  12.0185  12.0463  12.4025  12.5943  12.6503  12.9354
    13.0019  13.0731  13.5547  13.5696  13.5904  13.6368  13.7324  13.9209
    14.0020  14.1415  14.2439  14.2777  14.3257  14.3682  14.4103  14.4426
    14.4935  14.5400  14.5451  14.7685  14.7840  14.8842  14.9695  15.0724
    15.0973  15.3988  15.7128  15.9939  16.0845  16.1403  16.1484  16.1931
    16.2032  16.3319  16.4110  16.6264  16.6400  16.7397  16.7445  16.8445
    16.8549  17.0219  17.0262  17.3379  17.3927  17.6185  17.6751  17.6916
    17.7350  18.2389

          k = 0.0000 0.3849 0.1030 ( 20947 PWs)   bands (ev):

   -70.7726 -70.7529 -70.7269 -70.7252 -70.7113 -70.7003 -70.7003 -70.6932
   -40.8728 -40.8605 -40.8427 -40.8298 -37.1138 -37.0594 -36.9888 -36.9095
   -36.8785 -36.8604 -36.8570 -36.8448 -36.8151 -36.8147 -36.7842 -36.7665
   -36.7551 -36.7364 -36.7254 -36.7126 -36.6884 -36.6838 -36.6729 -36.6565
   -36.6465 -36.6354 -36.6309 -36.6281 -17.1966 -17.1871 -17.1738 -17.1726
   -17.1457 -17.1138 -17.0572 -17.0220 -17.0000 -16.9891 -16.9763 -16.9754
     9.7005  11.0868  11.9782  12.3207  12.3560  12.6111  12.6788  12.9389
    12.9647  13.1406  13.4626  13.4883  13.6565  13.7142  13.7394  13.9073
    13.9906  14.0979  14.2066  14.2732  14.2966  14.3021  14.3886  14.4836
    14.5469  14.5941  14.6565  14.7706  14.7956  14.9428  14.9698  15.0505
    15.1198  15.4177  15.7127  15.8932  16.0195  16.0600  16.1014  16.1549
    16.2133  16.3770  16.3905  16.6334  16.6478  16.7103  16.7304  16.8463
    16.8785  17.0674  17.1724  17.2887  17.3708  17.4870  17.6478  17.7182
    17.9658  18.1929

          k = 0.0000 0.3849 0.2061 ( 20959 PWs)   bands (ev):

   -70.7694 -70.7585 -70.7261 -70.7253 -70.7066 -70.7003 -70.7003 -70.6963
   -40.8709 -40.8642 -40.8388 -40.8318 -37.1064 -37.0780 -36.9625 -36.9191
   -36.8763 -36.8535 -36.8477 -36.8465 -36.8418 -36.8096 -36.8056 -36.7852
   -36.7390 -36.7295 -36.7079 -36.6987 -36.6907 -36.6738 -36.6698 -36.6657
   -36.6542 -36.6452 -36.6297 -36.6284 -17.1915 -17.1844 -17.1774 -17.1767
   -17.1410 -17.1229 -17.0482 -17.0289 -16.9936 -16.9863 -16.9798 -16.9789
     9.9023  10.6382  12.0312  12.2459  12.5900  12.6553  12.7444  12.8911
    13.0483  13.1960  13.3224  13.3700  13.7417  13.7514  13.8038  13.8936
    13.9401  14.0399  14.1774  14.1922  14.2402  14.3196  14.4494  14.5260
    14.5797  14.6197  14.7186  14.8443  14.8527  14.9643  14.9958  15.0480
    15.2561  15.4995  15.6955  15.7636  15.8554  15.9313  15.9502  16.0059
    16.2566  16.3511  16.4402  16.6241  16.6817  16.7004  16.7091  16.8473
    16.9466  17.1315  17.1692  17.3073  17.3796  17.5166  17.6417  17.8150
    17.9857  18.0875

          k = 0.0000 0.3849-0.3091 ( 20950 PWs)   bands (ev):

   -70.7644 -70.7644 -70.7256 -70.7256 -70.7011 -70.7011 -70.7003 -70.7003
   -40.8680 -40.8680 -40.8349 -40.8349 -37.0943 -37.0943 -36.9372 -36.9372
   -36.8657 -36.8657 -36.8495 -36.8495 -36.8265 -36.8265 -36.7999 -36.7999
   -36.7312 -36.7312 -36.6963 -36.6963 -36.6805 -36.6805 -36.6632 -36.6632
   -36.6593 -36.6593 -36.6288 -36.6288 -17.1844 -17.1844 -17.1806 -17.1806
   -17.1329 -17.1329 -17.0380 -17.0380 -16.9863 -16.9863 -16.9825 -16.9825
    10.2239  10.2239  12.1268  12.1268  12.6755  12.6755  12.8343  12.8343
    13.1745  13.1745  13.2649  13.2649  13.7742  13.7742  13.8431  13.8431
    13.9788  13.9788  14.1936  14.1936  14.2483  14.2483  14.5081  14.5081
    14.6013  14.6014  14.7869  14.7869  14.9523  14.9523  15.0254  15.0254
    15.5121  15.5121  15.6587  15.6587  15.7957  15.7957  15.8961  15.8961
    16.3152  16.3152  16.5418  16.5418  16.6590  16.6590  16.7972  16.7972
    17.0501  17.0501  17.2128  17.2128  17.5380  17.5380  17.7508  17.7508
    17.9560  17.9560

          k = 0.0000-0.5774 0.0000 ( 20966 PWs)   bands (ev):

   -70.7677 -70.7433 -70.7323 -70.7275 -70.7203 -70.7003 -70.7003 -70.6910
   -40.8676 -40.8525 -40.8508 -40.8352 -37.0823 -37.0117 -37.0005 -36.9326
   -36.8710 -36.8625 -36.8585 -36.8201 -36.7877 -36.7830 -36.7781 -36.7641
   -36.7630 -36.7467 -36.7467 -36.7454 -36.7255 -36.7014 -36.6963 -36.6573
   -36.6433 -36.6324 -36.6283 -36.6283 -17.1996 -17.1920 -17.1768 -17.1761
   -17.1406 -17.0967 -17.0740 -17.0260 -16.9972 -16.9865 -16.9733 -16.9716
    10.4811  11.0615  11.9969  12.1835  12.3523  12.6465  12.8044  12.8773
    13.0152  13.1960  13.6205  13.6448  13.7041  13.8995  13.9578  13.9642
    13.9844  14.0199  14.1162  14.2838  14.3313  14.3879  14.3910  14.4042
    14.4437  14.4816  14.4994  14.5405  14.5426  14.5586  14.6844  14.7419
    14.7730  15.0590  15.7516  16.0520  16.0678  16.1191  16.1483  16.2204
    16.2491  16.2907  16.3046  16.5636  16.6435  16.8291  16.9050  16.9571
    17.0315  17.0590  17.1279  17.1481  17.4122  17.5380  17.5620  17.6727
    17.8525  18.2039

          k = 0.0000-0.5774 0.1030 ( 20964 PWs)   bands (ev):

   -70.7666 -70.7458 -70.7323 -70.7297 -70.7157 -70.7003 -70.7003 -70.6922
   -40.8671 -40.8560 -40.8473 -40.8358 -37.0801 -37.0286 -36.9823 -36.9336
   -36.8722 -36.8562 -36.8559 -36.8227 -36.8055 -36.7897 -36.7777 -36.7641
   -36.7630 -36.7584 -36.7363 -36.7298 -36.7256 -36.6936 -36.6922 -36.6605
   -36.6469 -36.6318 -36.6314 -36.6284 -17.1977 -17.1910 -17.1773 -17.1773
   -17.1403 -17.1049 -17.0659 -17.0274 -16.9959 -16.9855 -16.9749 -16.9726
    10.5375  11.1035  11.7532  12.0840  12.5533  12.6616  12.7918  12.8772
    13.0502  13.2025  13.5845  13.6413  13.6972  13.9349  13.9552  13.9774
    14.0028  14.0030  14.0826  14.2104  14.2855  14.3646  14.3989  14.4127
    14.4243  14.4422  14.4910  14.5171  14.6496  14.6692  14.6815  14.7599
    14.8794  15.1269  15.7523  15.9751  16.0015  16.0915  16.1142  16.1392
    16.2068  16.2101  16.4860  16.6365  16.6869  16.7115  16.8021  16.8619
    16.9905  17.1623  17.1942  17.2781  17.3383  17.4999  17.7087  17.7415
    17.8445  18.1930

          k = 0.0000-0.5774 0.2061 ( 20950 PWs)   bands (ev):

   -70.7632 -70.7517 -70.7322 -70.7313 -70.7082 -70.7003 -70.7003 -70.6957
   -40.8656 -40.8598 -40.8433 -40.8374 -37.0734 -37.0473 -36.9613 -36.9373
   -36.8685 -36.8496 -36.8426 -36.8324 -36.8302 -36.8070 -36.7762 -36.7676
   -36.7634 -36.7630 -36.7302 -36.7262 -36.7062 -36.6814 -36.6764 -36.6701
   -36.6558 -36.6420 -36.6300 -36.6286 -17.1926 -17.1882 -17.1803 -17.1800
   -17.1375 -17.1182 -17.0529 -17.0323 -16.9916 -16.9826 -16.9793 -16.9752
    10.7009  11.1573  11.4803  11.8442  12.6629  12.7539  12.8053  12.8999
    13.1512  13.2504  13.4791  13.4851  13.7819  13.9333  13.9335  13.9520
    13.9750  14.0216  14.1254  14.1575  14.2927  14.3777  14.3849  14.3869
    14.4255  14.4516  14.4544  14.5025  14.6423  14.6625  14.8017  14.8043
    15.1675  15.3321  15.7289  15.7876  15.8801  15.9382  15.9892  16.0525
    16.2074  16.2294  16.5815  16.5859  16.7080  16.7488  16.8133  16.8175
    16.8347  17.1791  17.2700  17.3388  17.4738  17.4927  17.7820  17.8887
    17.8908  18.0868

          k = 0.0000-0.5774-0.3091 ( 20932 PWs)   bands (ev):

   -70.7580 -70.7580 -70.7319 -70.7319 -70.7012 -70.7012 -70.7003 -70.7003
   -40.8631 -40.8631 -40.8399 -40.8399 -37.0624 -37.0624 -36.9457 -36.9457
   -36.8551 -36.8551 -36.8401 -36.8401 -36.8257 -36.8257 -36.7732 -36.7732
   -36.7631 -36.7631 -36.7274 -36.7274 -36.6856 -36.6856 -36.6680 -36.6680
   -36.6577 -36.6577 -36.6291 -36.6291 -17.1858 -17.1858 -17.1843 -17.1843
   -17.1298 -17.1298 -17.0411 -17.0411 -16.9854 -16.9854 -16.9788 -16.9788
    10.9484  10.9484  11.5847  11.5847  12.7054  12.7054  12.9051  12.9051
    13.3050  13.3050  13.3503  13.3503  13.8705  13.8705  13.9304  13.9304
    13.9570  13.9570  14.2026  14.2026  14.3521  14.3521  14.3766  14.3766
    14.4066  14.4066  14.4820  14.4820  14.6451  14.6451  14.8357  14.8357
    15.5009  15.5009  15.5836  15.5836  15.8338  15.8338  15.9632  15.9632
    16.2285  16.2285  16.6276  16.6276  16.6602  16.6602  16.8185  16.8185
    16.9912  16.9912  17.3372  17.3373  17.6564  17.6564  17.6798  17.6798
    18.0462  18.0462

          k = 0.1667 0.2887 0.0000 ( 20939 PWs)   bands (ev):

   -70.7762 -70.7531 -70.7275 -70.7221 -70.7105 -70.7003 -70.7003 -70.6927
   -40.8755 -40.8608 -40.8424 -40.8269 -37.1303 -37.0615 -37.0046 -36.8957
   -36.8902 -36.8665 -36.8593 -36.8507 -36.8268 -36.7877 -36.7832 -36.7625
   -36.7477 -36.7458 -36.7456 -36.7053 -36.6845 -36.6559 -36.6504 -36.6501
   -36.6446 -36.6415 -36.6396 -36.6340 -17.1957 -17.1886 -17.1728 -17.1684
   -17.1472 -17.1145 -17.0562 -17.0182 -17.0054 -16.9905 -16.9761 -16.9755
     9.3921  11.2215  11.9111  12.2298  12.5136  12.5397  12.6034  12.8664
    12.9985  13.0171  13.3711  13.5187  13.5799  13.6499  13.7142  13.9105
    13.9481  14.1609  14.2128  14.2925  14.3374  14.4138  14.4367  14.4421
    14.5253  14.5852  14.6301  14.7856  14.9216  15.0297  15.1384  15.2902
    15.3367  15.4892  15.7586  15.8324  15.9354  16.0815  16.1782  16.2298
    16.2347  16.3207  16.5249  16.5474  16.5904  16.6571  16.7654  16.9187
    16.9448  17.0938  17.2225  17.2829  17.2951  17.3075  17.7391  17.7862
    17.7937  17.8687

          k = 0.1667 0.2887 0.1030 ( 20948 PWs)   bands (ev):

   -70.7751 -70.7556 -70.7263 -70.7222 -70.7092 -70.7003 -70.7003 -70.6938
   -40.8749 -40.8625 -40.8407 -40.8276 -37.1277 -37.0722 -36.9906 -36.9009
   -36.8888 -36.8611 -36.8584 -36.8500 -36.8246 -36.8189 -36.7796 -36.7706
   -36.7523 -36.7312 -36.7253 -36.7040 -36.6823 -36.6579 -36.6545 -36.6488
   -36.6460 -36.6420 -36.6395 -36.6364 -17.1940 -17.1876 -17.1739 -17.1702
   -17.1457 -17.1175 -17.0531 -17.0215 -17.0021 -16.9895 -16.9776 -16.9764
     9.4630  10.9171  12.1510  12.2315  12.5116  12.5261  12.5827  12.9788
    12.9927  13.0322  13.3228  13.4660  13.6115  13.6550  13.7267  13.9184
    13.9431  14.0883  14.1796  14.2406  14.3491  14.3775  14.4726  14.4814
    14.5876  14.6231  14.7290  14.8438  14.8983  15.0149  15.1724  15.2744
    15.3109  15.4992  15.7382  15.7724  15.8978  16.0418  16.1497  16.1818
    16.1974  16.3104  16.4157  16.6144  16.6292  16.7087  16.7375  16.9114
    16.9812  17.1457  17.2344  17.2838  17.3279  17.3406  17.6133  17.7593
    17.8276  17.9293

          k = 0.1667 0.2887 0.2061 ( 20960 PWs)   bands (ev):

   -70.7719 -70.7611 -70.7244 -70.7225 -70.7057 -70.7003 -70.7003 -70.6967
   -40.8729 -40.8661 -40.8369 -40.8297 -37.1200 -37.0907 -36.9631 -36.9137
   -36.8839 -36.8568 -36.8565 -36.8486 -36.8420 -36.8179 -36.8027 -36.7894
   -36.7316 -36.7200 -36.7045 -36.6969 -36.6752 -36.6648 -36.6627 -36.6507
   -36.6482 -36.6459 -36.6393 -36.6388 -17.1891 -17.1849 -17.1769 -17.1751
   -17.1409 -17.1249 -17.0458 -17.0285 -16.9955 -16.9866 -16.9818 -16.9790
     9.6717  10.4387  12.2432  12.3350  12.4741  12.5507  12.7069  12.9676
    13.0619  13.1414  13.2276  13.3669  13.6551  13.6700  13.7319  13.8975
    13.9706  14.0186  14.1276  14.1460  14.3255  14.4169  14.5558  14.5767
    14.6541  14.6577  14.8645  14.8679  14.9488  14.9890  15.1417  15.2428
    15.3545  15.5380  15.6607  15.7626  15.8363  15.9139  15.9705  16.0164
    16.1884  16.2953  16.4901  16.6065  16.6639  16.6851  16.7276  16.8494
    17.0941  17.2274  17.2641  17.3167  17.3725  17.4421  17.5393  17.6767
    17.7846  17.9388

          k = 0.1667 0.2887-0.3091 ( 20944 PWs)   bands (ev):

   -70.7670 -70.7670 -70.7231 -70.7231 -70.7010 -70.7010 -70.7003 -70.7003
   -40.8699 -40.8699 -40.8329 -40.8329 -37.1074 -37.1074 -36.9349 -36.9349
   -36.8728 -36.8728 -36.8546 -36.8546 -36.8242 -36.8242 -36.8059 -36.8059
   -36.7212 -36.7212 -36.6900 -36.6900 -36.6715 -36.6715 -36.6625 -36.6625
   -36.6476 -36.6476 -36.6392 -36.6392 -17.1827 -17.1827 -17.1804 -17.1804
   -17.1335 -17.1335 -17.0370 -17.0370 -16.9883 -16.9883 -16.9826 -16.9826
    10.0055  10.0055  12.2799  12.2799  12.5481  12.5481  12.8649  12.8649
    13.1291  13.1291  13.2720  13.2720  13.6667  13.6667  13.7939  13.7939
    14.0108  14.0108  14.1169  14.1169  14.3729  14.3729  14.6166  14.6166
    14.6664  14.6664  14.9160  14.9160  14.9556  14.9556  15.1526  15.1526
    15.5086  15.5086  15.7507  15.7507  15.7703  15.7703  15.8885  15.8885
    16.2473  16.2473  16.5682  16.5682  16.6661  16.6661  16.7616  16.7616
    17.2100  17.2100  17.2825  17.2825  17.4687  17.4687  17.5908  17.5908
    17.8121  17.8121

          k = 0.1667 0.4811 0.0000 ( 20957 PWs)   bands (ev):

   -70.7677 -70.7433 -70.7323 -70.7275 -70.7203 -70.7003 -70.7003 -70.6910
   -40.8676 -40.8524 -40.8509 -40.8353 -37.0776 -37.0085 -37.0005 -36.9351
   -36.8901 -36.8694 -36.8611 -36.8111 -36.7880 -36.7847 -36.7773 -36.7656
   -36.7639 -36.7509 -36.7496 -36.7395 -36.6992 -36.6938 -36.6804 -36.6540
   -36.6466 -36.6462 -36.6453 -36.6286 -17.1992 -17.1937 -17.1806 -17.1776
   -17.1320 -17.0899 -17.0793 -17.0341 -16.9960 -16.9831 -16.9776 -16.9674
    10.2865  11.5118  11.9158  12.3080  12.3243  12.6045  12.6526  12.8364
    12.8800  13.1325  13.6516  13.7015  13.7642  13.8268  13.8405  13.9088
    13.9106  14.0353  14.1874  14.2038  14.2346  14.3121  14.4061  14.4168
    14.4860  14.5003  14.5278  14.5484  14.6176  14.7073  14.8340  14.8520
    14.9842  15.1270  15.6561  15.7824  15.9410  15.9524  16.0818  16.1499
    16.3902  16.4232  16.4561  16.6024  16.6770  16.7221  16.8232  16.9508
    17.1271  17.1277  17.2053  17.2230  17.3219  17.4605  17.7237  17.7896
    17.9205  18.0269

          k = 0.1667 0.4811 0.1030 ( 20968 PWs)   bands (ev):

   -70.7666 -70.7458 -70.7323 -70.7297 -70.7157 -70.7003 -70.7003 -70.6922
   -40.8670 -40.8559 -40.8473 -40.8358 -37.0754 -37.0257 -36.9826 -36.9366
   -36.8880 -36.8649 -36.8586 -36.8145 -36.8050 -36.7902 -36.7812 -36.7740
   -36.7591 -36.7540 -36.7328 -36.7289 -36.6952 -36.6915 -36.6790 -36.6574
   -36.6498 -36.6462 -36.6443 -36.6318 -17.1979 -17.1922 -17.1819 -17.1776
   -17.1323 -17.1008 -17.0685 -17.0345 -16.9954 -16.9820 -16.9790 -16.9684
    10.3477  11.4672  11.7412  12.2503  12.5419  12.5542  12.6669  12.8193
    12.9596  13.1597  13.5941  13.6511  13.7842  13.8098  13.8864  13.9008
    13.9552  14.0405  14.0893  14.1541  14.2499  14.2680  14.3629  14.4403
    14.4535  14.5100  14.5384  14.5864  14.6468  14.7931  14.8525  14.9190
    15.0245  15.1644  15.6509  15.7500  15.8438  15.9774  16.0674  16.1130
    16.2614  16.3403  16.5646  16.6115  16.6876  16.6980  16.8387  16.9737
    17.0829  17.1391  17.1958  17.2752  17.3334  17.4471  17.6580  17.9022
    17.9560  18.0036

          k = 0.1667 0.4811 0.2061 ( 20964 PWs)   bands (ev):

   -70.7632 -70.7517 -70.7322 -70.7313 -70.7082 -70.7003 -70.7003 -70.6957
   -40.8655 -40.8598 -40.8433 -40.8374 -37.0690 -37.0437 -36.9635 -36.9412
   -36.8792 -36.8544 -36.8520 -36.8343 -36.8211 -36.8081 -36.7817 -36.7784
   -36.7574 -36.7558 -36.7156 -36.7120 -36.6921 -36.6791 -36.6733 -36.6665
   -36.6570 -36.6479 -36.6437 -36.6396 -17.1944 -17.1882 -17.1851 -17.1788
   -17.1312 -17.1145 -17.0551 -17.0373 -16.9929 -16.9830 -16.9790 -16.9711
    10.5268  11.1614  11.7634  12.1145  12.5326  12.6292  12.7740  12.8282
    13.1149  13.2296  13.4686  13.5164  13.8058  13.8401  13.8884  13.9155
    13.9623  14.0301  14.0509  14.1286  14.2148  14.2787  14.3360  14.3701
    14.4268  14.4811  14.5484  14.6031  14.7214  14.8400  14.9586  14.9905
    15.2106  15.3177  15.6256  15.6503  15.7140  15.8657  16.0124  16.0745
    16.1421  16.2316  16.5890  16.6388  16.6699  16.7456  16.8631  16.9797
    17.0596  17.1382  17.2399  17.2918  17.3296  17.4767  17.6751  17.8305
    17.9736  18.1270

          k = 0.1667 0.4811-0.3091 ( 20948 PWs)   bands (ev):

   -70.7580 -70.7580 -70.7319 -70.7319 -70.7012 -70.7012 -70.7003 -70.7003
   -40.8631 -40.8631 -40.8400 -40.8400 -37.0583 -37.0583 -36.9497 -36.9497
   -36.8610 -36.8610 -36.8461 -36.8461 -36.8230 -36.8230 -36.7807 -36.7807
   -36.7566 -36.7566 -36.7077 -36.7077 -36.6806 -36.6806 -36.6679 -36.6679
   -36.6583 -36.6583 -36.6431 -36.6431 -17.1898 -17.1898 -17.1827 -17.1827
   -17.1253 -17.1253 -17.0442 -17.0442 -16.9883 -16.9883 -16.9750 -16.9750
    10.8088  10.8088  11.9234  11.9234  12.5857  12.5857  12.8292  12.8292
    13.2934  13.2934  13.3688  13.3688  13.8366  13.8366  13.8810  13.8810
    14.0048  14.0048  14.0861  14.0861  14.2451  14.2451  14.3601  14.3601
    14.4256  14.4256  14.5651  14.5651  14.7965  14.7965  15.0273  15.0273
    15.4250  15.4250  15.5722  15.5722  15.6831  15.6831  15.9961  15.9961
    16.1687  16.1687  16.6238  16.6238  16.7091  16.7091  16.9217  16.9217
    17.0970  17.0970  17.2711  17.2711  17.4321  17.4321  17.7495  17.7495
    18.0023  18.0023

          k = 0.3333 0.5774 0.0000 ( 20985 PWs)   bands (ev):

   -70.7637 -70.7368 -70.7368 -70.7275 -70.7268 -70.7003 -70.7003 -70.6906
   -40.8593 -40.8593 -40.8438 -40.8438 -37.0424 -36.9991 -36.9684 -36.9684
   -36.9211 -36.8664 -36.8664 -36.7893 -36.7893 -36.7786 -36.7786 -36.7703
   -36.7617 -36.7617 -36.7571 -36.6960 -36.6960 -36.6946 -36.6808 -36.6808
   -36.6735 -36.6499 -36.6499 -36.6272 -17.2034 -17.1871 -17.1871 -17.1858
   -17.1059 -17.1059 -17.0610 -17.0610 -16.9861 -16.9861 -16.9786 -16.9629
    10.8819  11.6223  11.6223  12.3700  12.4062  12.6306  12.6306  12.7342
    12.7342  13.0876  13.7833  13.7833  13.8574  13.8574  13.9718  13.9718
    13.9743  13.9774  14.0164  14.0164  14.1079  14.2103  14.2560  14.2560
    14.5163  14.5163  14.5286  14.5852  14.5852  14.8858  14.8858  14.9429
    14.9785  15.0584  15.6614  15.7041  15.7041  15.7457  15.7457  16.0388
    16.5537  16.5537  16.5741  16.5741  16.7892  16.7892  16.9449  16.9449
    16.9703  17.1393  17.3134  17.3849  17.3849  17.4003  17.7707  17.7707
    17.8196  17.9664

          k = 0.3333 0.5774 0.1030 ( 20955 PWs)   bands (ev):

   -70.7624 -70.7368 -70.7368 -70.7366 -70.7177 -70.7003 -70.7003 -70.6918
   -40.8593 -40.8593 -40.8438 -40.8438 -37.0406 -37.0044 -36.9686 -36.9686
   -36.9120 -36.8634 -36.8634 -36.7965 -36.7943 -36.7943 -36.7864 -36.7864
   -36.7522 -36.7522 -36.7345 -36.6951 -36.6934 -36.6934 -36.6804 -36.6804
   -36.6716 -36.6524 -36.6524 -36.6305 -17.2023 -17.1871 -17.1859 -17.1859
   -17.1096 -17.1096 -17.0576 -17.0576 -16.9870 -16.9870 -16.9775 -16.9639
    10.9325  11.6632  11.6632  11.9943  12.5125  12.5125  12.7844  12.8046
    12.8046  13.1216  13.7466  13.7466  13.8400  13.9078  13.9078  13.9261
    13.9604  13.9604  14.0192  14.0192  14.1469  14.1873  14.1935  14.1935
    14.4642  14.4642  14.5635  14.7221  14.7221  14.8816  14.8918  14.8918
    15.0743  15.1417  15.6175  15.6175  15.6321  15.8293  15.8293  15.9793
    16.3956  16.3956  16.6312  16.6312  16.7986  16.7986  16.9609  16.9932
    16.9932  17.1684  17.2193  17.3740  17.3740  17.4101  17.7661  17.7661
    17.9609  17.9609

          k = 0.3333 0.5774 0.2061 ( 20946 PWs)   bands (ev):

   -70.7588 -70.7455 -70.7368 -70.7368 -70.7089 -70.7003 -70.7003 -70.6955
   -40.8594 -40.8594 -40.8437 -40.8437 -37.0353 -37.0156 -36.9690 -36.9690
   -36.8898 -36.8554 -36.8554 -36.8292 -36.8110 -36.8110 -36.7876 -36.7876
   -36.7431 -36.7431 -36.7136 -36.6971 -36.6876 -36.6876 -36.6780 -36.6780
   -36.6648 -36.6596 -36.6596 -36.6398 -17.1992 -17.1904 -17.1834 -17.1834
   -17.1164 -17.1164 -17.0516 -17.0516 -16.9888 -16.9888 -16.9745 -16.9666
    11.0812  11.6299  11.7687  11.7687  12.3334  12.3334  12.8636  12.8636
    13.1505  13.2192  13.6293  13.7130  13.7130  13.7752  13.9028  13.9028
    13.9375  13.9375  14.0784  14.0784  14.1479  14.1519  14.1585  14.1585
    14.4176  14.4176  14.6432  14.7506  14.7506  14.8109  15.0469  15.0469
    15.2235  15.3330  15.4985  15.4985  15.5528  15.8207  15.9097  15.9097
    16.2262  16.2262  16.6362  16.6362  16.8109  16.8109  16.9564  17.0744
    17.0744  17.0773  17.2498  17.3353  17.3353  17.3995  17.7759  17.7759
    17.9194  17.9194

          k = 0.3333 0.5774-0.3091 ( 20994 PWs)   bands (ev):

   -70.7530 -70.7530 -70.7368 -70.7368 -70.7013 -70.7013 -70.7003 -70.7003
   -40.8595 -40.8595 -40.8437 -40.8437 -37.0267 -37.0267 -36.9692 -36.9692
   -36.8611 -36.8611 -36.8491 -36.8491 -36.8206 -36.8206 -36.7877 -36.7877
   -36.7401 -36.7401 -36.7021 -36.7021 -36.6852 -36.6852 -36.6696 -36.6696
   -36.6696 -36.6696 -36.6528 -36.6528 -17.1949 -17.1949 -17.1820 -17.1820
   -17.1195 -17.1195 -17.0488 -17.0488 -16.9899 -16.9899 -16.9705 -16.9705
    11.3187  11.3187  11.8485  11.8485  12.2269  12.2269  12.8826  12.8826
    13.3420  13.3420  13.5594  13.5594  13.6997  13.6997  13.8811  13.8811
    13.9273  13.9273  14.1242  14.1242  14.1391  14.1391  14.1649  14.1649
    14.3897  14.3897  14.7281  14.7281  14.7306  14.7306  15.1907  15.1907
    15.3753  15.3753  15.3970  15.3970  15.6104  15.6104  15.9407  15.9407
    16.1580  16.1580  16.6341  16.6341  16.8158  16.8158  16.9893  16.9893
    17.1182  17.1182  17.3025  17.3025  17.3383  17.3383  17.7863  17.7863
    17.8919  17.8919

     the Fermi energy is    16.1668 ev

!    total energy              =   -3111.34853193 Ry
     estimated scf accuracy    <          6.4E-09 Ry
     smearing contrib. (-TS)   =       0.00009729 Ry
     internal energy E=F+TS    =   -3111.34862922 Ry

     The total energy is F=E-TS. E is the sum of the following terms:
     one-electron contribution =   -1208.35551954 Ry
     hartree contribution      =     698.26804709 Ry
     xc contribution           =    -349.40588261 Ry
     ewald contribution        =   -1642.60130586 Ry
     one-center paw contrib.   =    -609.25396830 Ry

     convergence has been achieved in  28 iterations

     negative rho (up, down):  3.166E-03 0.000E+00

     Forces acting on atoms (cartesian axes, Ry/au):

     atom    1 type  1   force =    -0.01333871    0.00770111    0.00000000
     atom    2 type  1   force =     0.01333871   -0.00770111    0.00000000
     atom    3 type  1   force =     0.00000000    0.01540222   -0.00000000
     atom    4 type  1   force =     0.01333871    0.00770111    0.00000000
     atom    5 type  1   force =     0.00000000   -0.01540222   -0.00000000
     atom    6 type  1   force =    -0.01333871   -0.00770111    0.00000000
     atom    7 type  1   force =     0.00000000   -0.00000000    0.00000000
     atom    8 type  1   force =    -0.00000000   -0.00000000    0.00000000
     atom    9 type  2   force =    -0.00000000    0.00000000   -0.01104092
     atom   10 type  2   force =     0.00000000   -0.00000000   -0.01104092
     atom   11 type  2   force =     0.00000000    0.00000000    0.01104092
     atom   12 type  2   force =     0.00000000    0.00000000    0.01104092

     Total force =     0.043715     Total SCF correction =     0.000104


     Computing stress (Cartesian axis) and pressure


     negative rho (up, down):  3.166E-03 0.000E+00
          total   stress  (Ry/bohr**3)                   (kbar)     P=     -151.96
  -0.00111830  -0.00000000  -0.00000000         -164.51       -0.00       -0.00
   0.00000000  -0.00111830  -0.00000000            0.00     -164.51       -0.00
   0.00000000   0.00000000  -0.00086247            0.00        0.00     -126.87


     Writing all to output data dir ./FeAl.save/ :
     XML data file, charge density, pseudopotentials, collected wavefunctions

     init_run     :      5.06s CPU      5.20s WALL (       1 calls)
     electrons    :    268.24s CPU    273.31s WALL (       1 calls)
     forces       :      1.30s CPU      1.32s WALL (       1 calls)
     stress       :      5.00s CPU      5.05s WALL (       1 calls)

     Called by init_run:
     wfcinit      :      3.65s CPU      3.76s WALL (       1 calls)
     potinit      :      0.48s CPU      0.50s WALL (       1 calls)
     hinit0       :      0.66s CPU      0.67s WALL (       1 calls)

     Called by electrons:
     c_bands      :    231.01s CPU    234.71s WALL (      28 calls)
     sum_band     :     29.45s CPU     30.16s WALL (      28 calls)
     v_of_rho     :      0.46s CPU      0.52s WALL (      29 calls)
     newd         :      2.26s CPU      2.52s WALL (      29 calls)
     PAW_pot      :      5.13s CPU      5.36s WALL (      29 calls)
     mix_rho      :      0.12s CPU      0.13s WALL (      28 calls)

     Called by c_bands:
     init_us_2    :      1.90s CPU      1.93s WALL (    1652 calls)
     cegterg      :    221.48s CPU    224.94s WALL (     784 calls)

     Called by *egterg:
     cdiaghg      :     35.96s CPU     36.09s WALL (    2955 calls)
     h_psi        :    121.75s CPU    124.00s WALL (    2983 calls)
     s_psi        :     11.24s CPU     11.47s WALL (    2983 calls)
     g_psi        :      0.57s CPU      0.58s WALL (    2171 calls)

     Called by h_psi:
     h_psi:calbec :     17.47s CPU     17.55s WALL (    2983 calls)
     vloc_psi     :     92.00s CPU     93.66s WALL (    2983 calls)
     add_vuspsi   :     11.68s CPU     11.73s WALL (    2983 calls)

     General routines
     calbec       :     28.09s CPU     28.22s WALL (    4243 calls)
     fft          :      0.89s CPU      0.97s WALL (     400 calls)
     ffts         :      0.31s CPU      0.32s WALL (      57 calls)
     fftw         :     94.41s CPU     95.96s WALL (  510610 calls)
     interpolate  :      0.33s CPU      0.34s WALL (      29 calls)

     Parallel routines

     PWSCF        :    280.56s CPU    296.64s WALL


   This run was terminated on:  15: 3:23  27Oct2025            

=------------------------------------------------------------------------------=
   JOB DONE.
=------------------------------------------------------------------------------=
Note: The following floating-point exceptions are signalling: IEEE_UNDERFLOW_FLAG IEEE_DENORMAL
Note: The following floating-point exceptions are signalling: IEEE_UNDERFLOW_FLAG IEEE_DENORMAL
Note: The following floating-point exceptions are signalling: IEEE_UNDERFLOW_FLAG IEEE_DENORMAL
Note: The following floating-point exceptions are signalling: IEEE_UNDERFLOW_FLAG IEEE_DENORMAL
Note: The following floating-point exceptions are signalling: IEEE_UNDERFLOW_FLAG IEEE_DENORMAL
Note: The following floating-point exceptions are signalling: IEEE_UNDERFLOW_FLAG IEEE_DENORMAL
Note: The following floating-point exceptions are signalling: IEEE_UNDERFLOW_FLAG IEEE_DENORMAL
Note: The following floating-point exceptions are signalling: IEEE_UNDERFLOW_FLAG IEEE_DENORMAL
Note: The following floating-point exceptions are signalling: IEEE_UNDERFLOW_FLAG IEEE_DENORMAL
Note: The following floating-point exceptions are signalling: IEEE_UNDERFLOW_FLAG IEEE_DENORMAL
Note: The following floating-point exceptions are signalling: IEEE_UNDERFLOW_FLAG IEEE_DENORMAL
Note: The following floating-point exceptions are signalling: IEEE_UNDERFLOW_FLAG IEEE_DENORMAL
Note: The following floating-point exceptions are signalling: IEEE_UNDERFLOW_FLAG IEEE_DENORMAL
Note: The following floating-point exceptions are signalling: IEEE_UNDERFLOW_FLAG IEEE_DENORMAL
Note: The following floating-point exceptions are signalling: IEEE_UNDERFLOW_FLAG IEEE_DENORMAL
Note: The following floating-point exceptions are signalling: IEEE_UNDERFLOW_FLAG IEEE_DENORMAL
