
     Program PWSCF v.7.4 starts on 27Oct2025 at 14:38:37 

     This program is part of the open-source Quantum ESPRESSO suite
     for quantum simulation of materials; please cite
         "P. Giannozzi et al., J. Phys.:Condens. Matter 21 395502 (2009);
         "P. Giannozzi et al., J. Phys.:Condens. Matter 29 465901 (2017);
         "P. Giannozzi et al., J. Chem. Phys. 152 154105 (2020);
          URL http://www.quantum-espresso.org", 
     in publications or presentations arising from this work. More details at
     http://www.quantum-espresso.org/quote

     Parallel version (MPI & OpenMP), running on      16 processor cores
     Number of MPI processes:                16
     Threads/MPI process:                     1

     MPI processes distributed on     1 nodes
     224152 MiB available memory on the printing compute node when the environment starts

     Reading input from TiFe2_ecutwfc_convergence/TiFe2_ecut50.in

     Current dimensions of program PWSCF are:
     Max number of different atomic species (ntypx) = 10
     Max number of k-points (npk) =  40000
     Max angular momentum in pseudopotentials (lmaxx) =  4
     file Fe.pbe-spn-kjpaw_psl.0.2.1.UPF: wavefunction(s)  3D renormalized

     IMPORTANT: XC functional enforced from input :
     Exchange-correlation= PBE
                           (   1   4   3   4   0   0   0)
     Any further DFT definition will be discarded
     Please, verify this is what you really want

     Message from routine setup:
     using ibrav=0 with symmetry is DISCOURAGED, use correct ibrav instead

     R & G space division:  proc/nbgrp/npool/nimage =      16
     Subspace diagonalization in iterative solution of the eigenvalue problem:
     a serial algorithm will be used


     Parallelization info
     --------------------
     sticks:   dense  smooth     PW     G-vecs:    dense   smooth      PW
     Min          89      72     20                 4477     3210     490
     Max          90      73     23                 4483     3215     493
     Sum        1429    1159    337                71691    51385    7847

     Using Slab Decomposition



     bravais-lattice index     =            0
     lattice parameter (alat)  =       9.1568  a.u.
     unit-cell volume          =    1075.5644 (a.u.)^3
     number of atoms/cell      =           12
     number of atomic types    =            2
     number of electrons       =       176.00
     number of Kohn-Sham states=          106
     kinetic-energy cutoff     =      50.0000  Ry
     charge density cutoff     =     250.0000  Ry
     scf convergence threshold =      1.0E-08
     mixing beta               =       0.7000
     number of iterations used =            8  plain     mixing
     Exchange-correlation= PBE
                           (   1   4   3   4   0   0   0)

     celldm(1)=   9.156781  celldm(2)=   0.000000  celldm(3)=   0.000000
     celldm(4)=   0.000000  celldm(5)=   0.000000  celldm(6)=   0.000000

     crystal axes: (cart. coord. in units of alat)
               a(1) = (   1.000000   0.000000   0.000000 )  
               a(2) = (  -0.500000   0.866025   0.000000 )  
               a(3) = (   0.000000   0.000000   1.617623 )  

     reciprocal axes: (cart. coord. in units 2 pi/alat)
               b(1) = (  1.000000  0.577350 -0.000000 )  
               b(2) = (  0.000000  1.154701  0.000000 )  
               b(3) = (  0.000000 -0.000000  0.618191 )  


     PseudoPot. # 1 for Fe read from file:
     ./Fe.pbe-spn-kjpaw_psl.0.2.1.UPF
     MD5 check sum: e86618425769142926afa95317d90200
     Pseudo is Projector augmented-wave + core cor, Zval = 16.0
     Generated using "atomic" code by A. Dal Corso  v.5.0.99 svn rev. 10869
     Shape of augmentation charge: PSQ
     Using radial grid of 1191 points,  6 beta functions with: 
                l(1) =   0
                l(2) =   0
                l(3) =   1
                l(4) =   1
                l(5) =   2
                l(6) =   2
     Q(r) pseudized with 0 coefficients 


     PseudoPot. # 2 for Ti read from file:
     ./Ti_pbe_v1.4.uspp.F.UPF
     MD5 check sum: 88a00a6731bd790ddea75d31a80cb452
     Pseudo is Ultrasoft + core correction, Zval = 12.0
     Generated by new atomic code, or converted to UPF format
     Using radial grid of  851 points,  6 beta functions with: 
                l(1) =   0
                l(2) =   0
                l(3) =   1
                l(4) =   1
                l(5) =   2
                l(6) =   2
     Q(r) pseudized with  6 coefficients,  rinner =    1.000   1.000   1.000
                                                       1.000   1.000

     atomic species   valence    mass     pseudopotential
     Fe               16.00    55.84500     Fe( 1.00)
     Ti               12.00    47.86700     Ti( 1.00)

     24 Sym. Ops., with inversion, found (12 have fractional translation)



   Cartesian axes

     site n.     atom                  positions (alat units)
         1        Fe     tau(   1) = (   0.7465670   0.1463196   0.4044057  )
         2        Fe     tau(   2) = (  -0.2465670   0.7197058   1.2132171  )
         3        Fe     tau(   3) = (  -0.0000000   0.2926392   1.2132171  )
         4        Fe     tau(   4) = (   0.2534330   0.1463196   0.4044057  )
         5        Fe     tau(   5) = (   0.5000000   0.5733862   0.4044057  )
         6        Fe     tau(   6) = (   0.2465670   0.7197058   1.2132171  )
         7        Fe     tau(   7) = (   0.0000000   0.0000000   0.0000000  )
         8        Fe     tau(   8) = (   0.0000000   0.0000000   0.8088114  )
         9        Ti     tau(   9) = (   0.5000000   0.2886751   1.5200090  )
        10        Ti     tau(  10) = (  -0.0000000   0.5773503   0.7111976  )
        11        Ti     tau(  11) = (  -0.0000000   0.5773503   0.0976138  )
        12        Ti     tau(  12) = (   0.5000000   0.2886751   0.9064252  )

     number of k points=    28  Marzari-Vanderbilt smearing, width (Ry)=  0.0050
                       cart. coord. in units 2pi/alat
        k(    1) = (   0.0000000   0.0000000   0.0000000), wk =   0.0092593
        k(    2) = (   0.0000000   0.0000000   0.1030318), wk =   0.0185185
        k(    3) = (   0.0000000   0.0000000   0.2060637), wk =   0.0185185
        k(    4) = (   0.0000000   0.0000000  -0.3090955), wk =   0.0092593
        k(    5) = (   0.0000000   0.1924501   0.0000000), wk =   0.0555556
        k(    6) = (   0.0000000   0.1924501   0.1030318), wk =   0.1111111
        k(    7) = (   0.0000000   0.1924501   0.2060637), wk =   0.1111111
        k(    8) = (   0.0000000   0.1924501  -0.3090955), wk =   0.0555556
        k(    9) = (   0.0000000   0.3849002   0.0000000), wk =   0.0555556
        k(   10) = (   0.0000000   0.3849002   0.1030318), wk =   0.1111111
        k(   11) = (   0.0000000   0.3849002   0.2060637), wk =   0.1111111
        k(   12) = (   0.0000000   0.3849002  -0.3090955), wk =   0.0555556
        k(   13) = (   0.0000000  -0.5773503   0.0000000), wk =   0.0277778
        k(   14) = (   0.0000000  -0.5773503   0.1030318), wk =   0.0555556
        k(   15) = (   0.0000000  -0.5773503   0.2060637), wk =   0.0555556
        k(   16) = (   0.0000000  -0.5773503  -0.3090955), wk =   0.0277778
        k(   17) = (   0.1666667   0.2886751   0.0000000), wk =   0.0555556
        k(   18) = (   0.1666667   0.2886751   0.1030318), wk =   0.1111111
        k(   19) = (   0.1666667   0.2886751   0.2060637), wk =   0.1111111
        k(   20) = (   0.1666667   0.2886751  -0.3090955), wk =   0.0555556
        k(   21) = (   0.1666667   0.4811252   0.0000000), wk =   0.1111111
        k(   22) = (   0.1666667   0.4811252   0.1030318), wk =   0.2222222
        k(   23) = (   0.1666667   0.4811252   0.2060637), wk =   0.2222222
        k(   24) = (   0.1666667   0.4811252  -0.3090955), wk =   0.1111111
        k(   25) = (   0.3333333   0.5773503   0.0000000), wk =   0.0185185
        k(   26) = (   0.3333333   0.5773503   0.1030318), wk =   0.0370370
        k(   27) = (   0.3333333   0.5773503   0.2060637), wk =   0.0370370
        k(   28) = (   0.3333333   0.5773503  -0.3090955), wk =   0.0185185

     Dense  grid:    71691 G-vectors     FFT dimensions: (  48,  48,  80)

     Smooth grid:    51385 G-vectors     FFT dimensions: (  45,  45,  72)

     Estimated max dynamical RAM per process >      39.75 MB

     Estimated total dynamical RAM >     635.94 MB

     Check: negative core charge=   -0.000289

     Initial potential from superposition of free atoms

     starting charge     171.9963, renormalised to     176.0000

     negative rho (up, down):  5.219E-03 0.000E+00
     Starting wfcs are  144 randomized atomic wfcs
     Checking if some PAW data can be deallocated... 

     total cpu time spent up to now is        2.9 secs

     per-process dynamical memory:   139.1 Mb

     Self-consistent Calculation

     iteration #  1     ecut=    50.00 Ry     beta= 0.70
     Davidson diagonalization with overlap
     ethr =  1.00E-02,  avg # of iterations =  2.0

     negative rho (up, down):  1.610E-03 0.000E+00

     total cpu time spent up to now is        7.5 secs

     total energy              =   -3016.78434920 Ry
     estimated scf accuracy    <     116.75306653 Ry

     iteration #  2     ecut=    50.00 Ry     beta= 0.70
     Davidson diagonalization with overlap
     ethr =  1.00E-02,  avg # of iterations =  6.5

     total cpu time spent up to now is       17.5 secs

     total energy              =   -3076.07451548 Ry
     estimated scf accuracy    <     698.57766727 Ry

     iteration #  3     ecut=    50.00 Ry     beta= 0.70
     Davidson diagonalization with overlap
     ethr =  1.00E-02,  avg # of iterations =  5.1

     total cpu time spent up to now is       25.2 secs

     total energy              =   -3120.97642904 Ry
     estimated scf accuracy    <      92.40456327 Ry

     iteration #  4     ecut=    50.00 Ry     beta= 0.70
     Davidson diagonalization with overlap
     ethr =  1.00E-02,  avg # of iterations =  1.1

     negative rho (up, down):  2.929E-05 0.000E+00

     total cpu time spent up to now is       29.0 secs

     total energy              =   -3116.40880040 Ry
     estimated scf accuracy    <      55.19222100 Ry

     iteration #  5     ecut=    50.00 Ry     beta= 0.70
     Davidson diagonalization with overlap
     ethr =  1.00E-02,  avg # of iterations =  1.8

     negative rho (up, down):  5.522E-04 0.000E+00

     total cpu time spent up to now is       32.9 secs

     total energy              =   -3115.13326477 Ry
     estimated scf accuracy    <      41.68096610 Ry

     iteration #  6     ecut=    50.00 Ry     beta= 0.70
     Davidson diagonalization with overlap
     ethr =  1.00E-02,  avg # of iterations =  1.0

     negative rho (up, down):  1.465E-03 0.000E+00

     total cpu time spent up to now is       36.6 secs

     total energy              =   -3113.63379864 Ry
     estimated scf accuracy    <      26.26079401 Ry

     iteration #  7     ecut=    50.00 Ry     beta= 0.70
     Davidson diagonalization with overlap
     ethr =  1.00E-02,  avg # of iterations =  1.0

     negative rho (up, down):  2.769E-03 0.000E+00

     total cpu time spent up to now is       40.3 secs

     total energy              =   -3111.26620570 Ry
     estimated scf accuracy    <      18.69358229 Ry

     iteration #  8     ecut=    50.00 Ry     beta= 0.70
     Davidson diagonalization with overlap
     ethr =  1.00E-02,  avg # of iterations =  1.0

     negative rho (up, down):  3.067E-03 0.000E+00

     total cpu time spent up to now is       43.9 secs

     total energy              =   -3111.41247583 Ry
     estimated scf accuracy    <       6.32877887 Ry

     iteration #  9     ecut=    50.00 Ry     beta= 0.70
     Davidson diagonalization with overlap
     ethr =  3.60E-03,  avg # of iterations =  1.7

     negative rho (up, down):  3.554E-03 0.000E+00

     total cpu time spent up to now is       47.9 secs

     total energy              =   -3111.15529461 Ry
     estimated scf accuracy    <       4.54655551 Ry

     iteration # 10     ecut=    50.00 Ry     beta= 0.70
     Davidson diagonalization with overlap
     ethr =  2.58E-03,  avg # of iterations =  2.1

     negative rho (up, down):  4.746E-03 0.000E+00

     total cpu time spent up to now is       52.0 secs

     total energy              =   -3110.82287118 Ry
     estimated scf accuracy    <       1.57082733 Ry

     iteration # 11     ecut=    50.00 Ry     beta= 0.70
     Davidson diagonalization with overlap
     ethr =  8.93E-04,  avg # of iterations =  5.4

     negative rho (up, down):  4.279E-03 0.000E+00

     total cpu time spent up to now is       58.9 secs

     total energy              =   -3111.19074394 Ry
     estimated scf accuracy    <       7.13166902 Ry

     iteration # 12     ecut=    50.00 Ry     beta= 0.70
     Davidson diagonalization with overlap
     ethr =  8.93E-04,  avg # of iterations =  1.1

     negative rho (up, down):  3.407E-03 0.000E+00

     total cpu time spent up to now is       62.7 secs

     total energy              =   -3111.00404214 Ry
     estimated scf accuracy    <       1.43552319 Ry

     iteration # 13     ecut=    50.00 Ry     beta= 0.70
     Davidson diagonalization with overlap
     ethr =  8.16E-04,  avg # of iterations =  3.5

     negative rho (up, down):  3.794E-03 0.000E+00

     total cpu time spent up to now is       67.8 secs

     total energy              =   -3111.30378478 Ry
     estimated scf accuracy    <       1.65133520 Ry

     iteration # 14     ecut=    50.00 Ry     beta= 0.70
     Davidson diagonalization with overlap
     ethr =  8.16E-04,  avg # of iterations =  1.0

     negative rho (up, down):  4.007E-03 0.000E+00

     total cpu time spent up to now is       71.5 secs

     total energy              =   -3111.24083033 Ry
     estimated scf accuracy    <       0.90530000 Ry

     iteration # 15     ecut=    50.00 Ry     beta= 0.70
     Davidson diagonalization with overlap
     ethr =  5.14E-04,  avg # of iterations =  1.2

     negative rho (up, down):  4.043E-03 0.000E+00

     total cpu time spent up to now is       75.2 secs

     total energy              =   -3111.25885637 Ry
     estimated scf accuracy    <       0.12562100 Ry

     iteration # 16     ecut=    50.00 Ry     beta= 0.70
     Davidson diagonalization with overlap
     ethr =  7.14E-05,  avg # of iterations =  2.6

     negative rho (up, down):  4.056E-03 0.000E+00

     total cpu time spent up to now is       79.4 secs

     total energy              =   -3111.26041744 Ry
     estimated scf accuracy    <       0.06281400 Ry

     iteration # 17     ecut=    50.00 Ry     beta= 0.70
     Davidson diagonalization with overlap
     ethr =  3.57E-05,  avg # of iterations =  2.4

     negative rho (up, down):  4.107E-03 0.000E+00

     total cpu time spent up to now is       83.5 secs

     total energy              =   -3111.25679916 Ry
     estimated scf accuracy    <       0.06383121 Ry

     iteration # 18     ecut=    50.00 Ry     beta= 0.70
     Davidson diagonalization with overlap
     ethr =  3.57E-05,  avg # of iterations =  1.4

     negative rho (up, down):  4.163E-03 0.000E+00

     total cpu time spent up to now is       87.3 secs

     total energy              =   -3111.25562140 Ry
     estimated scf accuracy    <       0.01842153 Ry

     iteration # 19     ecut=    50.00 Ry     beta= 0.70
     Davidson diagonalization with overlap
     ethr =  1.05E-05,  avg # of iterations =  5.6

     negative rho (up, down):  4.156E-03 0.000E+00

     total cpu time spent up to now is       92.9 secs

     total energy              =   -3111.25758472 Ry
     estimated scf accuracy    <       0.00074053 Ry

     iteration # 20     ecut=    50.00 Ry     beta= 0.70
     Davidson diagonalization with overlap
     ethr =  4.21E-07,  avg # of iterations =  5.5

     negative rho (up, down):  4.157E-03 0.000E+00

     total cpu time spent up to now is       99.3 secs

     total energy              =   -3111.25779882 Ry
     estimated scf accuracy    <       0.00006781 Ry

     iteration # 21     ecut=    50.00 Ry     beta= 0.70
     Davidson diagonalization with overlap
     ethr =  3.85E-08,  avg # of iterations =  4.6

     negative rho (up, down):  4.158E-03 0.000E+00

     total cpu time spent up to now is      105.2 secs

     total energy              =   -3111.25781018 Ry
     estimated scf accuracy    <       0.00003584 Ry

     iteration # 22     ecut=    50.00 Ry     beta= 0.70
     Davidson diagonalization with overlap
     ethr =  2.04E-08,  avg # of iterations =  1.5

     negative rho (up, down):  4.160E-03 0.000E+00

     total cpu time spent up to now is      109.1 secs

     total energy              =   -3111.25781236 Ry
     estimated scf accuracy    <       0.00000165 Ry

     iteration # 23     ecut=    50.00 Ry     beta= 0.70
     Davidson diagonalization with overlap
     ethr =  9.39E-10,  avg # of iterations =  5.2

     negative rho (up, down):  4.159E-03 0.000E+00

     total cpu time spent up to now is      116.6 secs

     total energy              =   -3111.25781279 Ry
     estimated scf accuracy    <       0.00001430 Ry

     iteration # 24     ecut=    50.00 Ry     beta= 0.70
     Davidson diagonalization with overlap
     ethr =  9.39E-10,  avg # of iterations =  3.8

     negative rho (up, down):  4.159E-03 0.000E+00

     total cpu time spent up to now is      121.7 secs

     total energy              =   -3111.25781342 Ry
     estimated scf accuracy    <       0.00000015 Ry

     iteration # 25     ecut=    50.00 Ry     beta= 0.70
     Davidson diagonalization with overlap
     ethr =  8.54E-11,  avg # of iterations =  5.0

     negative rho (up, down):  4.159E-03 0.000E+00

     total cpu time spent up to now is      128.3 secs

     total energy              =   -3111.25781348 Ry
     estimated scf accuracy    <       0.00000027 Ry

     iteration # 26     ecut=    50.00 Ry     beta= 0.70
     Davidson diagonalization with overlap
     ethr =  8.54E-11,  avg # of iterations =  1.5

     negative rho (up, down):  4.159E-03 0.000E+00

     total cpu time spent up to now is      132.1 secs

     total energy              =   -3111.25781348 Ry
     estimated scf accuracy    <       0.00000003 Ry

     iteration # 27     ecut=    50.00 Ry     beta= 0.70
     Davidson diagonalization with overlap
     ethr =  1.42E-11,  avg # of iterations =  4.1

     negative rho (up, down):  4.159E-03 0.000E+00

     total cpu time spent up to now is      137.5 secs

     End of self-consistent calculation

          k = 0.0000 0.0000 0.0000 (  6435 PWs)   bands (ev):

   -70.7636 -70.7411 -70.7041 -70.6818 -70.6785 -70.6785 -70.6784 -70.6784
   -40.8716 -40.8574 -40.8221 -40.8068 -37.1743 -37.1051 -36.9940 -36.8741
   -36.8741 -36.8543 -36.8543 -36.8399 -36.8399 -36.7816 -36.7701 -36.7294
   -36.7294 -36.7237 -36.7237 -36.6275 -36.6243 -36.6243 -36.6239 -36.6239
   -36.6160 -36.6160 -36.6007 -36.6003 -17.1637 -17.1637 -17.1497 -17.1497
   -17.1487 -17.1470 -17.0080 -17.0050 -16.9904 -16.9904 -16.9758 -16.9758
     8.6302  10.6659  11.4455  12.0263  12.5196  12.6175  12.7803  12.7803
    13.0036  13.0036  13.2163  13.3004  13.3990  13.3990  13.8337  13.8337
    13.9806  13.9806  14.2137  14.3031  14.3031  14.3346  14.3346  14.7965
    14.7965  14.9304  15.4135  15.4135  15.5374  15.5374  15.8369  15.9237
    15.9237  15.9256  15.9256  16.0719  16.0719  16.0869  16.0983  16.1483
    16.1741  16.1741  16.2430  16.2936  16.2936  16.7454  16.7454  16.7864
    16.9987  16.9987  17.3019  17.3019  17.5011  17.5011  17.5254  17.5257
    17.7945  17.7945

          k = 0.0000 0.0000 0.1030 (  6447 PWs)   bands (ev):

   -70.7626 -70.7434 -70.7018 -70.6829 -70.6786 -70.6786 -70.6784 -70.6784
   -40.8709 -40.8588 -40.8207 -40.8076 -37.1715 -37.1136 -36.9810 -36.8734
   -36.8734 -36.8589 -36.8589 -36.8323 -36.8323 -36.8202 -36.7520 -36.7520
   -36.7346 -36.7018 -36.7018 -36.6325 -36.6316 -36.6316 -36.6198 -36.6198
   -36.6161 -36.6161 -36.6006 -36.6004 -17.1629 -17.1629 -17.1507 -17.1507
   -17.1483 -17.1469 -17.0080 -17.0054 -16.9893 -16.9893 -16.9767 -16.9767
     8.7070  10.3166  11.7334  12.0272  12.4183  12.7937  12.7937  12.8087
    12.9858  12.9858  13.0602  13.4054  13.4258  13.4258  13.8131  13.8131
    13.9608  13.9608  14.1931  14.1931  14.2830  14.4777  14.4777  14.8526
    14.8526  14.9664  15.3383  15.3383  15.4465  15.4465  15.7162  15.8753
    15.9377  15.9377  16.0365  16.0365  16.0638  16.0638  16.0910  16.1442
    16.1792  16.1792  16.2325  16.2325  16.3863  16.8155  16.8155  16.9897
    16.9897  17.0012  17.2940  17.2940  17.5026  17.5026  17.5254  17.5257
    17.7780  17.7780

          k = 0.0000 0.0000 0.2061 (  6430 PWs)   bands (ev):

   -70.7594 -70.7486 -70.6966 -70.6861 -70.6785 -70.6785 -70.6783 -70.6783
   -40.8688 -40.8620 -40.8173 -40.8099 -37.1626 -37.1313 -36.9494 -36.8718
   -36.8718 -36.8649 -36.8648 -36.8648 -36.8169 -36.8169 -36.7759 -36.7759
   -36.6981 -36.6789 -36.6789 -36.6459 -36.6428 -36.6428 -36.6176 -36.6176
   -36.6164 -36.6164 -36.6005 -36.6004 -17.1604 -17.1604 -17.1534 -17.1534
   -17.1475 -17.1467 -17.0080 -17.0065 -16.9865 -16.9865 -16.9792 -16.9792
     8.9345   9.7796  11.9960  12.0295  12.4718  12.8311  12.8311  12.8710
    12.9403  12.9403  13.0714  13.4226  13.4989  13.4989  13.7249  13.7249
    13.9676  13.9676  14.0951  14.0951  14.5158  14.6711  14.6711  14.9627
    14.9627  15.0534  15.1733  15.1733  15.3016  15.3016  15.4866  15.5059
    15.9701  15.9701  16.0351  16.0351  16.0956  16.0956  16.1022  16.1329
    16.1347  16.1347  16.3451  16.3451  16.6330  16.8202  16.8202  17.0259
    17.0259  17.2559  17.2559  17.4544  17.5255  17.5520  17.5520  17.5712
    17.7269  17.7269

          k = 0.0000 0.0000-0.3091 (  6430 PWs)   bands (ev):

   -70.7543 -70.7543 -70.6910 -70.6910 -70.6785 -70.6785 -70.6785 -70.6785
   -40.8657 -40.8657 -40.8134 -40.8134 -37.1491 -37.1491 -36.9090 -36.9090
   -36.8690 -36.8690 -36.8690 -36.8690 -36.7982 -36.7982 -36.7982 -36.7982
   -36.6676 -36.6676 -36.6590 -36.6590 -36.6590 -36.6590 -36.6166 -36.6166
   -36.6166 -36.6166 -36.6002 -36.6002 -17.1570 -17.1570 -17.1570 -17.1570
   -17.1469 -17.1469 -17.0075 -17.0075 -16.9828 -16.9828 -16.9828 -16.9828
     9.3010   9.3010  12.0324  12.0324  12.6784  12.6784  12.8839  12.8839
    12.8839  12.8839  13.2982  13.2982  13.6050  13.6050  13.6050  13.6050
    14.0186  14.0186  14.0186  14.0186  14.8827  14.8827  14.8827  14.8827
    14.8987  14.8987  15.1697  15.1697  15.1697  15.1697  15.3303  15.3303
    16.0101  16.0101  16.0101  16.0101  16.0825  16.0825  16.0825  16.0825
    16.1175  16.1175  16.6070  16.6070  16.6070  16.6070  17.0116  17.0116
    17.1627  17.1627  17.1627  17.1627  17.5256  17.5256  17.6442  17.6442
    17.6442  17.6442

          k = 0.0000 0.1925 0.0000 (  6448 PWs)   bands (ev):

   -70.7600 -70.7376 -70.7041 -70.6907 -70.6822 -70.6785 -70.6785 -70.6732
   -40.8689 -40.8545 -40.8252 -40.8098 -37.1530 -37.0836 -36.9916 -36.8734
   -36.8606 -36.8600 -36.8440 -36.8399 -36.8390 -36.7750 -36.7699 -36.7366
   -36.7294 -36.7248 -36.7241 -36.6419 -36.6366 -36.6327 -36.6275 -36.6243
   -36.6237 -36.6224 -36.6076 -36.6067 -17.1782 -17.1682 -17.1537 -17.1508
   -17.1454 -17.1259 -17.0242 -17.0008 -16.9957 -16.9862 -16.9716 -16.9681
     8.8973  10.8704  11.6236  12.1396  12.5605  12.6137  12.7275  12.8237
    12.9138  13.1685  13.1714  13.4117  13.4536  13.4755  13.7893  13.8873
    13.9818  14.0842  14.2537  14.2984  14.3014  14.3358  14.3752  14.6497
    14.7215  14.7311  15.0402  15.2408  15.2444  15.2997  15.5103  15.5932
    15.7743  15.8668  15.8979  15.9751  16.0194  16.0802  16.1293  16.2056
    16.2337  16.3288  16.3457  16.3728  16.5073  16.6409  16.8170  16.9049
    16.9156  17.0270  17.2986  17.3149  17.3439  17.5345  17.5593  17.5620
    17.5874  17.9288

          k = 0.0000 0.1925 0.1030 (  6431 PWs)   bands (ev):

   -70.7588 -70.7399 -70.7021 -70.6910 -70.6818 -70.6785 -70.6784 -70.6739
   -40.8682 -40.8559 -40.8237 -40.8105 -37.1501 -37.0926 -36.9782 -36.8729
   -36.8659 -36.8600 -36.8473 -36.8360 -36.8282 -36.8123 -36.7564 -36.7513
   -36.7338 -36.7063 -36.7024 -36.6432 -36.6374 -36.6361 -36.6291 -36.6252
   -36.6240 -36.6235 -36.6072 -36.6065 -17.1768 -17.1673 -17.1547 -17.1541
   -17.1426 -17.1268 -17.0232 -17.0048 -16.9914 -16.9852 -16.9725 -16.9694
     8.9729  10.5352  11.8971  12.1408  12.4655  12.6690  12.7945  12.8428
    12.9484  13.1379  13.1456  13.3813  13.4846  13.5106  13.7860  13.8741
    13.9503  14.0491  14.1467  14.2286  14.3343  14.4579  14.5155  14.7107
    14.7566  14.7807  15.0416  15.1878  15.2041  15.2753  15.5309  15.5698
    15.6991  15.8198  15.8683  15.9424  16.0194  16.0536  16.1341  16.1834
    16.2191  16.3135  16.3212  16.4155  16.5151  16.7023  16.8045  16.9204
    16.9710  17.1088  17.2967  17.3321  17.3438  17.4820  17.5558  17.5824
    17.6403  17.9046

          k = 0.0000 0.1925 0.2061 (  6430 PWs)   bands (ev):

   -70.7556 -70.7451 -70.6980 -70.6921 -70.6806 -70.6785 -70.6785 -70.6760
   -40.8661 -40.8593 -40.8202 -40.8128 -37.1417 -37.1107 -36.9477 -36.8817
   -36.8691 -36.8588 -36.8529 -36.8468 -36.8207 -36.8137 -36.7798 -36.7747
   -36.7005 -36.6861 -36.6803 -36.6487 -36.6459 -36.6441 -36.6316 -36.6297
   -36.6237 -36.6236 -36.6070 -36.6066 -17.1726 -17.1647 -17.1601 -17.1575
   -17.1381 -17.1295 -17.0204 -17.0105 -16.9850 -16.9823 -16.9750 -16.9731
     9.1948  10.0157  12.1319  12.1500  12.4976  12.6971  12.8168  12.8970
    13.0400  13.0637  13.1253  13.3814  13.5292  13.5650  13.7138  13.7989
    13.9571  14.0274  14.0680  14.1348  14.4666  14.6711  14.6909  14.8100
    14.8561  14.8608  15.0090  15.0984  15.1169  15.1943  15.3696  15.4573
    15.6855  15.8175  15.8680  15.9059  15.9325  16.0378  16.0747  16.1128
    16.2129  16.3087  16.3456  16.5200  16.5748  16.7090  16.7521  16.8357
    17.0868  17.2586  17.2782  17.3528  17.4029  17.5231  17.5496  17.6267
    17.6367  17.8345

          k = 0.0000 0.1925-0.3091 (  6424 PWs)   bands (ev):

   -70.7507 -70.7507 -70.6944 -70.6944 -70.6785 -70.6785 -70.6785 -70.6785
   -40.8630 -40.8630 -40.8162 -40.8162 -37.1282 -37.1282 -36.9117 -36.9117
   -36.8634 -36.8634 -36.8566 -36.8566 -36.8017 -36.8017 -36.7956 -36.7956
   -36.6789 -36.6789 -36.6610 -36.6610 -36.6537 -36.6537 -36.6316 -36.6316
   -36.6234 -36.6234 -36.6067 -36.6067 -17.1666 -17.1666 -17.1612 -17.1612
   -17.1335 -17.1335 -17.0159 -17.0159 -16.9786 -16.9786 -16.9786 -16.9786
     9.5509   9.5509  12.1532  12.1532  12.6402  12.6402  12.9058  12.9058
    12.9761  12.9761  13.2990  13.2990  13.5989  13.5989  13.6775  13.6775
    14.0096  14.0096  14.0653  14.0653  14.6960  14.6960  14.8385  14.8385
    14.9024  14.9024  14.9763  14.9763  15.1156  15.1156  15.2928  15.2928
    15.7989  15.7989  15.8568  15.8568  15.9381  15.9381  16.0728  16.0728
    16.2615  16.2615  16.5070  16.5070  16.6668  16.6668  16.7013  16.7013
    17.1899  17.1899  17.3589  17.3589  17.4822  17.4822  17.5509  17.5509
    17.7328  17.7328

          k = 0.0000 0.3849 0.0000 (  6418 PWs)   bands (ev):

   -70.7511 -70.7284 -70.7040 -70.7030 -70.6913 -70.6785 -70.6784 -70.6695
   -40.8618 -40.8469 -40.8330 -40.8174 -37.1008 -37.0323 -36.9864 -36.8896
   -36.8589 -36.8503 -36.8401 -36.8261 -36.7983 -36.7693 -36.7656 -36.7469
   -36.7292 -36.7284 -36.7250 -36.6970 -36.6691 -36.6688 -36.6545 -36.6342
   -36.6242 -36.6137 -36.6124 -36.6089 -17.1870 -17.1765 -17.1611 -17.1598
   -17.1354 -17.0981 -17.0497 -17.0074 -16.9914 -16.9785 -16.9637 -16.9622
     9.6500  11.3768  12.0404  12.0702  12.4159  12.6077  12.6623  12.9513
    13.0171  13.0883  13.5730  13.5866  13.6055  13.6463  13.7414  13.9378
    14.0117  14.1529  14.2595  14.2948  14.3415  14.3834  14.4267  14.4547
    14.5029  14.5545  14.5595  14.7897  14.7993  14.8980  14.9955  15.1029
    15.1144  15.4099  15.7241  16.0102  16.0913  16.1509  16.1641  16.2126
    16.2187  16.3438  16.4233  16.6433  16.6540  16.7581  16.7653  16.8529
    16.8654  17.0310  17.0386  17.3513  17.4033  17.6285  17.6892  17.7007
    17.7589  18.2520

          k = 0.0000 0.3849 0.1030 (  6412 PWs)   bands (ev):

   -70.7499 -70.7307 -70.7038 -70.7031 -70.6893 -70.6784 -70.6783 -70.6706
   -40.8611 -40.8488 -40.8310 -40.8181 -37.0983 -37.0437 -36.9719 -36.8925
   -36.8612 -36.8424 -36.8387 -36.8268 -36.7975 -36.7967 -36.7660 -36.7480
   -36.7369 -36.7175 -36.7065 -36.6939 -36.6696 -36.6655 -36.6535 -36.6372
   -36.6272 -36.6172 -36.6117 -36.6090 -17.1852 -17.1755 -17.1622 -17.1612
   -17.1341 -17.1022 -17.0457 -17.0104 -16.9885 -16.9774 -16.9646 -16.9638
     9.7190  11.1093  11.9991  12.3433  12.3702  12.6248  12.6911  12.9532
    12.9809  13.1558  13.4806  13.5036  13.6717  13.7251  13.7500  13.9220
    14.0006  14.1095  14.2213  14.2872  14.3105  14.3180  14.4053  14.5005
    14.5613  14.6113  14.6703  14.7915  14.8084  14.9584  14.9962  15.0798
    15.1357  15.4283  15.7243  15.9091  16.0308  16.0720  16.1138  16.1704
    16.2271  16.3895  16.4067  16.6481  16.6660  16.7241  16.7484  16.8560
    16.8893  17.0792  17.1841  17.3015  17.3821  17.5036  17.6579  17.7283
    17.9844  18.2054

          k = 0.0000 0.3849 0.2061 (  6423 PWs)   bands (ev):

   -70.7468 -70.7361 -70.7034 -70.7031 -70.6843 -70.6785 -70.6784 -70.6738
   -40.8592 -40.8525 -40.8271 -40.8201 -37.0909 -37.0623 -36.9457 -36.9023
   -36.8591 -36.8352 -36.8299 -36.8284 -36.8242 -36.7916 -36.7875 -36.7670
   -36.7206 -36.7108 -36.6891 -36.6800 -36.6719 -36.6554 -36.6505 -36.6465
   -36.6349 -36.6271 -36.6106 -36.6093 -17.1800 -17.1728 -17.1659 -17.1651
   -17.1294 -17.1114 -17.0366 -17.0173 -16.9820 -16.9746 -16.9683 -16.9672
     9.9211  10.6598  12.0503  12.2615  12.6088  12.6690  12.7577  12.9048
    13.0650  13.2110  13.3401  13.3849  13.7560  13.7621  13.8158  13.9049
    13.9517  14.0509  14.1936  14.2045  14.2522  14.3401  14.4666  14.5436
    14.5963  14.6365  14.7366  14.8582  14.8736  14.9919  15.0155  15.0733
    15.2685  15.5097  15.7073  15.7791  15.8688  15.9438  15.9602  16.0199
    16.2703  16.3640  16.4558  16.6413  16.6979  16.7178  16.7206  16.8572
    16.9579  17.1426  17.1816  17.3183  17.3913  17.5316  17.6526  17.8258
    18.0003  18.0992

          k = 0.0000 0.3849-0.3091 (  6436 PWs)   bands (ev):

   -70.7420 -70.7420 -70.7032 -70.7032 -70.6786 -70.6786 -70.6785 -70.6785
   -40.8563 -40.8563 -40.8232 -40.8232 -37.0787 -37.0787 -36.9204 -36.9204
   -36.8483 -36.8483 -36.8313 -36.8313 -36.8085 -36.8085 -36.7819 -36.7819
   -36.7128 -36.7128 -36.6775 -36.6775 -36.6616 -36.6616 -36.6439 -36.6439
   -36.6412 -36.6412 -36.6098 -36.6098 -17.1730 -17.1730 -17.1690 -17.1690
   -17.1214 -17.1214 -17.0265 -17.0265 -16.9748 -16.9748 -16.9708 -16.9708
    10.2434  10.2434  12.1439  12.1439  12.6901  12.6901  12.8482  12.8482
    13.1916  13.1916  13.2799  13.2799  13.7849  13.7849  13.8564  13.8564
    13.9894  13.9894  14.2049  14.2049  14.2688  14.2688  14.5253  14.5253
    14.6182  14.6182  14.8050  14.8050  14.9728  14.9728  15.0508  15.0508
    15.5242  15.5242  15.6711  15.6711  15.8073  15.8073  15.9091  15.9091
    16.3283  16.3283  16.5570  16.5570  16.6760  16.6760  16.8081  16.8081
    17.0620  17.0620  17.2234  17.2234  17.5496  17.5496  17.7653  17.7653
    17.9670  17.9670

          k = 0.0000-0.5774 0.0000 (  6432 PWs)   bands (ev):

   -70.7449 -70.7215 -70.7105 -70.7040 -70.6984 -70.6784 -70.6784 -70.6684
   -40.8559 -40.8408 -40.8391 -40.8235 -37.0666 -36.9962 -36.9838 -36.9165
   -36.8532 -36.8464 -36.8403 -36.8019 -36.7685 -36.7658 -36.7607 -36.7466
   -36.7442 -36.7293 -36.7278 -36.7260 -36.7060 -36.6833 -36.6769 -36.6379
   -36.6239 -36.6136 -36.6100 -36.6092 -17.1882 -17.1804 -17.1654 -17.1645
   -17.1290 -17.0852 -17.0624 -17.0144 -16.9857 -16.9748 -16.9617 -16.9599
    10.5016  11.0842  12.0197  12.1995  12.3742  12.6590  12.8189  12.8982
    13.0330  13.2092  13.6330  13.6612  13.7205  13.9094  13.9695  13.9785
    13.9982  14.0429  14.1248  14.2994  14.3498  14.4033  14.4134  14.4194
    14.4607  14.4945  14.5124  14.5533  14.5667  14.5681  14.7044  14.7521
    14.7866  15.0651  15.7639  16.0582  16.0828  16.1349  16.1585  16.2301
    16.2644  16.3102  16.3124  16.5742  16.6515  16.8481  16.9254  16.9772
    17.0405  17.0735  17.1397  17.1764  17.4263  17.5461  17.5728  17.6831
    17.8611  18.2163

          k = 0.0000-0.5774 0.1030 (  6452 PWs)   bands (ev):

   -70.7439 -70.7238 -70.7104 -70.7069 -70.6934 -70.6785 -70.6785 -70.6697
   -40.8554 -40.8443 -40.8356 -40.8241 -37.0645 -37.0128 -36.9658 -36.9175
   -36.8549 -36.8392 -36.8380 -36.8048 -36.7879 -36.7716 -36.7603 -36.7460
   -36.7443 -36.7405 -36.7179 -36.7109 -36.7065 -36.6757 -36.6729 -36.6414
   -36.6278 -36.6135 -36.6126 -36.6096 -17.1863 -17.1794 -17.1659 -17.1657
   -17.1287 -17.0934 -17.0543 -17.0158 -16.9844 -16.9738 -16.9633 -16.9609
    10.5577  11.1251  11.7766  12.1014  12.5730  12.6756  12.8058  12.8964
    13.0677  13.2152  13.5964  13.6592  13.7117  13.9477  13.9668  13.9900
    14.0171  14.0215  14.0944  14.2256  14.3009  14.3854  14.4138  14.4249
    14.4413  14.4592  14.5038  14.5418  14.6636  14.6890  14.6964  14.7704
    14.8916  15.1332  15.7648  15.9869  16.0164  16.1008  16.1286  16.1504
    16.2206  16.2209  16.5001  16.6477  16.6953  16.7278  16.8208  16.8782
    17.0107  17.1778  17.2085  17.2905  17.3520  17.5095  17.7231  17.7522
    17.8540  18.2043

          k = 0.0000-0.5774 0.2061 (  6422 PWs)   bands (ev):

   -70.7405 -70.7293 -70.7101 -70.7090 -70.6856 -70.6785 -70.6783 -70.6731
   -40.8539 -40.8482 -40.8316 -40.8257 -37.0576 -37.0313 -36.9445 -36.9208
   -36.8512 -36.8313 -36.8254 -36.8151 -36.8118 -36.7891 -36.7587 -36.7499
   -36.7447 -36.7443 -36.7113 -36.7069 -36.6873 -36.6619 -36.6584 -36.6510
   -36.6366 -36.6238 -36.6112 -36.6096 -17.1811 -17.1766 -17.1687 -17.1686
   -17.1259 -17.1066 -17.0413 -17.0207 -16.9801 -16.9709 -16.9677 -16.9635
    10.7217  11.1783  11.5045  11.8645  12.6755  12.7680  12.8247  12.9176
    13.1696  13.2626  13.4903  13.5046  13.7948  13.9461  13.9470  13.9638
    13.9888  14.0348  14.1414  14.1746  14.3092  14.3914  14.4019  14.4065
    14.4440  14.4692  14.4792  14.5159  14.6621  14.6786  14.8147  14.8153
    15.1800  15.3410  15.7416  15.8045  15.8945  15.9455  16.0025  16.0658
    16.2188  16.2413  16.5965  16.6027  16.7242  16.7590  16.8271  16.8340
    16.8464  17.1923  17.2827  17.3506  17.4892  17.5049  17.7931  17.9016
    17.9061  18.1003

          k = 0.0000-0.5774-0.3091 (  6408 PWs)   bands (ev):

   -70.7354 -70.7354 -70.7097 -70.7097 -70.6786 -70.6786 -70.6784 -70.6784
   -40.8514 -40.8514 -40.8282 -40.8282 -37.0465 -37.0465 -36.9290 -36.9290
   -36.8378 -36.8378 -36.8217 -36.8217 -36.8080 -36.8080 -36.7556 -36.7556
   -36.7442 -36.7442 -36.7083 -36.7083 -36.6665 -36.6665 -36.6486 -36.6486
   -36.6396 -36.6396 -36.6101 -36.6101 -17.1744 -17.1744 -17.1727 -17.1727
   -17.1183 -17.1183 -17.0295 -17.0295 -16.9739 -16.9739 -16.9671 -16.9671
    10.9694  10.9694  11.6075  11.6075  12.7186  12.7186  12.9232  12.9232
    13.3240  13.3240  13.3618  13.3618  13.8843  13.8843  13.9430  13.9430
    13.9691  13.9691  14.2196  14.2196  14.3725  14.3725  14.3910  14.3910
    14.4284  14.4284  14.4981  14.4981  14.6628  14.6628  14.8477  14.8477
    15.5138  15.5138  15.5974  15.5974  15.8455  15.8455  15.9766  15.9766
    16.2398  16.2398  16.6446  16.6446  16.6756  16.6756  16.8284  16.8284
    17.0042  17.0042  17.3489  17.3489  17.6682  17.6682  17.6968  17.6968
    18.0563  18.0563

          k = 0.1667 0.2887 0.0000 (  6416 PWs)   bands (ev):

   -70.7535 -70.7311 -70.7040 -70.6999 -70.6886 -70.6784 -70.6784 -70.6703
   -40.8639 -40.8491 -40.8307 -40.8152 -37.1147 -37.0460 -36.9879 -36.8787
   -36.8727 -36.8482 -36.8406 -36.8328 -36.8088 -36.7694 -36.7660 -36.7451
   -36.7304 -36.7260 -36.7259 -36.6866 -36.6662 -36.6374 -36.6322 -36.6309
   -36.6253 -36.6216 -36.6198 -36.6156 -17.1843 -17.1770 -17.1612 -17.1571
   -17.1356 -17.1029 -17.0446 -17.0065 -16.9939 -16.9788 -16.9645 -16.9638
     9.4088  11.2437  11.9353  12.2463  12.5264  12.5527  12.6170  12.8824
    13.0120  13.0326  13.3886  13.5361  13.5946  13.6581  13.7225  13.9184
    13.9647  14.1719  14.2307  14.3078  14.3531  14.4342  14.4486  14.4527
    14.5361  14.6052  14.6432  14.8049  14.9446  15.0488  15.1506  15.3191
    15.3608  15.5010  15.7691  15.8501  15.9508  16.0895  16.1974  16.2460
    16.2470  16.3373  16.5433  16.5601  16.6075  16.6675  16.7840  16.9303
    16.9580  17.1038  17.2329  17.2911  17.3101  17.3208  17.7550  17.7959
    17.8060  17.8850

          k = 0.1667 0.2887 0.1030 (  6418 PWs)   bands (ev):

   -70.7525 -70.7334 -70.7031 -70.7000 -70.6873 -70.6784 -70.6784 -70.6712
   -40.8632 -40.8508 -40.8290 -40.8159 -37.1122 -37.0567 -36.9737 -36.8839
   -36.8713 -36.8430 -36.8400 -36.8320 -36.8066 -36.8012 -36.7615 -36.7523
   -36.7343 -36.7120 -36.7066 -36.6854 -36.6638 -36.6394 -36.6355 -36.6303
   -36.6270 -36.6224 -36.6198 -36.6179 -17.1825 -17.1760 -17.1623 -17.1588
   -17.1341 -17.1060 -17.0416 -17.0099 -16.9906 -16.9778 -16.9660 -16.9647
     9.4801  10.9393  12.1737  12.2477  12.5255  12.5390  12.5960  12.9944
    13.0066  13.0474  13.3400  13.4820  13.6253  13.6646  13.7375  13.9269
    13.9572  14.0996  14.1958  14.2527  14.3667  14.3888  14.4916  14.4973
    14.6022  14.6423  14.7441  14.8594  14.9216  15.0346  15.1872  15.3004
    15.3357  15.5111  15.7506  15.7869  15.9115  16.0512  16.1648  16.2011
    16.2094  16.3267  16.4305  16.6298  16.6469  16.7206  16.7543  16.9236
    16.9920  17.1573  17.2484  17.2951  17.3365  17.3536  17.6270  17.7696
    17.8430  17.9436

          k = 0.1667 0.2887 0.2061 (  6435 PWs)   bands (ev):

   -70.7493 -70.7387 -70.7016 -70.7002 -70.6836 -70.6785 -70.6785 -70.6742
   -40.8612 -40.8544 -40.8252 -40.8180 -37.1045 -37.0752 -36.9462 -36.8968
   -36.8664 -36.8389 -36.8384 -36.8311 -36.8239 -36.7999 -36.7846 -36.7712
   -36.7131 -36.7010 -36.6858 -36.6782 -36.6567 -36.6460 -36.6438 -36.6323
   -36.6298 -36.6273 -36.6199 -36.6196 -17.1776 -17.1733 -17.1653 -17.1637
   -17.1294 -17.1134 -17.0343 -17.0169 -16.9839 -16.9749 -16.9702 -16.9673
     9.6898  10.4599  12.2587  12.3500  12.4919  12.5645  12.7208  12.9815
    13.0770  13.1572  13.2440  13.3825  13.6654  13.6834  13.7444  13.9089
    13.9815  14.0286  14.1405  14.1576  14.3404  14.4387  14.5731  14.5939
    14.6730  14.6754  14.8859  14.8870  14.9623  15.0103  15.1690  15.2681
    15.3680  15.5499  15.6734  15.7744  15.8483  15.9263  15.9818  16.0325
    16.2046  16.3112  16.5044  16.6209  16.6796  16.7011  16.7427  16.8609
    17.1040  17.2399  17.2761  17.3295  17.3833  17.4517  17.5526  17.6893
    17.7975  17.9530

          k = 0.1667 0.2887-0.3091 (  6416 PWs)   bands (ev):

   -70.7444 -70.7444 -70.7006 -70.7006 -70.6786 -70.6786 -70.6784 -70.6784
   -40.8582 -40.8582 -40.8212 -40.8212 -37.0918 -37.0918 -36.9179 -36.9179
   -36.8553 -36.8553 -36.8366 -36.8366 -36.8061 -36.8061 -36.7877 -36.7877
   -36.7023 -36.7023 -36.6711 -36.6711 -36.6526 -36.6526 -36.6440 -36.6440
   -36.6289 -36.6289 -36.6198 -36.6198 -17.1712 -17.1712 -17.1688 -17.1688
   -17.1220 -17.1220 -17.0254 -17.0254 -16.9767 -16.9767 -16.9710 -16.9710
    10.0249  10.0249  12.2946  12.2946  12.5639  12.5639  12.8788  12.8788
    13.1450  13.1450  13.2880  13.2880  13.6779  13.6779  13.8071  13.8071
    14.0201  14.0201  14.1282  14.1282  14.3939  14.3939  14.6351  14.6351
    14.6852  14.6852  14.9363  14.9363  14.9745  14.9745  15.1789  15.1789
    15.5203  15.5203  15.7628  15.7628  15.7820  15.7820  15.9024  15.9024
    16.2633  16.2633  16.5823  16.5823  16.6820  16.6820  16.7746  16.7746
    17.2199  17.2199  17.2949  17.2949  17.4807  17.4807  17.6027  17.6027
    17.8256  17.8256

          k = 0.1667 0.4811 0.0000 (  6407 PWs)   bands (ev):

   -70.7449 -70.7214 -70.7103 -70.7039 -70.6984 -70.6784 -70.6783 -70.6685
   -40.8559 -40.8407 -40.8392 -40.8236 -37.0618 -36.9928 -36.9837 -36.9187
   -36.8736 -36.8513 -36.8426 -36.7928 -36.7692 -36.7666 -36.7600 -36.7481
   -36.7450 -36.7334 -36.7304 -36.7202 -36.6802 -36.6748 -36.6615 -36.6345
   -36.6274 -36.6269 -36.6260 -36.6102 -17.1877 -17.1822 -17.1690 -17.1662
   -17.1204 -17.0783 -17.0677 -17.0225 -16.9845 -16.9714 -16.9660 -16.9557
    10.3074  11.5344  11.9398  12.3313  12.3420  12.6216  12.6671  12.8522
    12.8993  13.1460  13.6651  13.7186  13.7780  13.8377  13.8573  13.9176
    13.9269  14.0501  14.1988  14.2211  14.2509  14.3303  14.4213  14.4364
    14.5009  14.5202  14.5412  14.5679  14.6287  14.7201  14.8445  14.8677
    15.0038  15.1373  15.6666  15.7972  15.9528  15.9697  16.0930  16.1594
    16.4072  16.4421  16.4659  16.6149  16.6947  16.7355  16.8431  16.9620
    17.1374  17.1406  17.2243  17.2365  17.3347  17.4697  17.7362  17.8036
    17.9315  18.0402

          k = 0.1667 0.4811 0.1030 (  6417 PWs)   bands (ev):

   -70.7438 -70.7237 -70.7102 -70.7069 -70.6933 -70.6784 -70.6783 -70.6696
   -40.8554 -40.8443 -40.8356 -40.8241 -37.0597 -37.0096 -36.9660 -36.9202
   -36.8714 -36.8469 -36.8403 -36.7962 -36.7873 -36.7721 -36.7629 -36.7555
   -36.7409 -36.7362 -36.7141 -36.7098 -36.6762 -36.6729 -36.6601 -36.6382
   -36.6305 -36.6272 -36.6252 -36.6134 -17.1863 -17.1808 -17.1703 -17.1662
   -17.1207 -17.0893 -17.0569 -17.0229 -16.9839 -16.9703 -16.9675 -16.9567
    10.3686  11.4896  11.7655  12.2683  12.5614  12.5741  12.6817  12.8338
    12.9785  13.1730  13.6081  13.6686  13.7968  13.8238  13.8982  13.9155
    13.9690  14.0536  14.1011  14.1695  14.2668  14.2843  14.3796  14.4564
    14.4732  14.5284  14.5556  14.6020  14.6619  14.8046  14.8692  14.9331
    15.0408  15.1738  15.6622  15.7645  15.8585  15.9883  16.0781  16.1263
    16.2767  16.3570  16.5772  16.6272  16.7046  16.7126  16.8521  16.9858
    17.0973  17.1514  17.2100  17.2873  17.3450  17.4586  17.6699  17.9157
    17.9680  18.0176

          k = 0.1667 0.4811 0.2061 (  6420 PWs)   bands (ev):

   -70.7405 -70.7292 -70.7101 -70.7089 -70.6857 -70.6784 -70.6784 -70.6732
   -40.8538 -40.8481 -40.8317 -40.8257 -37.0531 -37.0277 -36.9470 -36.9248
   -36.8624 -36.8364 -36.8336 -36.8170 -36.8029 -36.7900 -36.7636 -36.7601
   -36.7392 -36.7377 -36.6967 -36.6932 -36.6730 -36.6602 -36.6548 -36.6475
   -36.6377 -36.6291 -36.6247 -36.6210 -17.1828 -17.1768 -17.1736 -17.1673
   -17.1196 -17.1029 -17.0435 -17.0256 -16.9814 -16.9715 -16.9673 -16.9594
    10.5478  11.1841  11.7863  12.1339  12.5512  12.6457  12.7906  12.8421
    13.1341  13.2428  13.4832  13.5326  13.8195  13.8537  13.8999  13.9287
    13.9762  14.0442  14.0631  14.1436  14.2329  14.2936  14.3527  14.3861
    14.4461  14.5017  14.5652  14.6188  14.7390  14.8568  14.9713  15.0097
    15.2226  15.3275  15.6385  15.6649  15.7272  15.8731  16.0251  16.0898
    16.1573  16.2479  16.6052  16.6534  16.6850  16.7602  16.8737  16.9922
    17.0706  17.1505  17.2524  17.3037  17.3413  17.4895  17.6868  17.8434
    17.9858  18.1422

          k = 0.1667 0.4811-0.3091 (  6414 PWs)   bands (ev):

   -70.7354 -70.7354 -70.7097 -70.7097 -70.6786 -70.6786 -70.6784 -70.6784
   -40.8514 -40.8514 -40.8283 -40.8283 -37.0424 -37.0424 -36.9331 -36.9331
   -36.8439 -36.8439 -36.8279 -36.8279 -36.8049 -36.8049 -36.7625 -36.7625
   -36.7384 -36.7384 -36.6888 -36.6888 -36.6616 -36.6616 -36.6486 -36.6486
   -36.6400 -36.6400 -36.6242 -36.6242 -17.1783 -17.1783 -17.1712 -17.1712
   -17.1137 -17.1137 -17.0326 -17.0326 -16.9767 -16.9767 -16.9633 -16.9633
    10.8305  10.8305  11.9446  11.9446  12.6036  12.6036  12.8437  12.8437
    13.3106  13.3106  13.3831  13.3831  13.8500  13.8500  13.8936  13.8936
    14.0175  14.0175  14.1028  14.1028  14.2606  14.2606  14.3759  14.3759
    14.4461  14.4461  14.5819  14.5819  14.8142  14.8142  15.0434  15.0434
    15.4376  15.4376  15.5860  15.5860  15.6925  15.6925  16.0097  16.0097
    16.1842  16.1842  16.6402  16.6402  16.7228  16.7228  16.9323  16.9323
    17.1082  17.1082  17.2834  17.2834  17.4448  17.4448  17.7614  17.7614
    18.0165  18.0165

          k = 0.3333 0.5774 0.0000 (  6438 PWs)   bands (ev):

   -70.7408 -70.7149 -70.7149 -70.7052 -70.7042 -70.6784 -70.6784 -70.6680
   -40.8476 -40.8476 -40.8322 -40.8322 -37.0266 -36.9821 -36.9525 -36.9525
   -36.9051 -36.8485 -36.8485 -36.7702 -36.7702 -36.7605 -36.7605 -36.7531
   -36.7443 -36.7443 -36.7389 -36.6778 -36.6778 -36.6753 -36.6615 -36.6615
   -36.6548 -36.6308 -36.6308 -36.6090 -17.1918 -17.1757 -17.1757 -17.1743
   -17.0943 -17.0943 -17.0494 -17.0494 -16.9746 -16.9746 -16.9669 -16.9512
    10.9049  11.6444  11.6444  12.3963  12.4279  12.6505  12.6505  12.7493
    12.7493  13.0965  13.7932  13.7932  13.8737  13.8737  13.9848  13.9848
    13.9860  13.9944  14.0333  14.0333  14.1164  14.2331  14.2782  14.2782
    14.5303  14.5303  14.5413  14.5955  14.5955  14.8996  14.8996  14.9614
    14.9927  15.0656  15.6781  15.7197  15.7197  15.7589  15.7589  16.0431
    16.5723  16.5723  16.5850  16.5850  16.8081  16.8081  16.9571  16.9571
    16.9807  17.1511  17.3250  17.3937  17.3937  17.4184  17.7840  17.7840
    17.8328  17.9779

          k = 0.3333 0.5774 0.1030 (  6390 PWs)   bands (ev):

   -70.7395 -70.7148 -70.7148 -70.7139 -70.6951 -70.6782 -70.6782 -70.6692
   -40.8477 -40.8477 -40.8321 -40.8321 -37.0245 -36.9877 -36.9525 -36.9525
   -36.8958 -36.8451 -36.8451 -36.7789 -36.7755 -36.7755 -36.7676 -36.7676
   -36.7348 -36.7348 -36.7160 -36.6757 -36.6748 -36.6748 -36.6609 -36.6609
   -36.6527 -36.6330 -36.6330 -36.6120 -17.1907 -17.1755 -17.1745 -17.1745
   -17.0981 -17.0981 -17.0460 -17.0460 -16.9755 -16.9755 -16.9658 -16.9522
    10.9559  11.6858  11.6858  12.0189  12.5326  12.5326  12.8093  12.8206
    12.8206  13.1308  13.7595  13.7595  13.8523  13.9232  13.9232  13.9397
    13.9751  13.9751  14.0350  14.0350  14.1608  14.2080  14.2103  14.2103
    14.4794  14.4794  14.5771  14.7366  14.7366  14.9002  14.9058  14.9058
    15.0886  15.1487  15.6315  15.6315  15.6494  15.8441  15.8441  15.9842
    16.4117  16.4117  16.6470  16.6470  16.8145  16.8145  16.9714  17.0055
    17.0055  17.1804  17.2304  17.3837  17.3837  17.4268  17.7800  17.7800
    17.9726  17.9726

          k = 0.3333 0.5774 0.2061 (  6396 PWs)   bands (ev):

   -70.7358 -70.7227 -70.7148 -70.7148 -70.6862 -70.6783 -70.6783 -70.6729
   -40.8478 -40.8478 -40.8320 -40.8320 -37.0191 -36.9991 -36.9530 -36.9530
   -36.8734 -36.8372 -36.8372 -36.8119 -36.7926 -36.7926 -36.7685 -36.7685
   -36.7259 -36.7259 -36.6949 -36.6779 -36.6684 -36.6684 -36.6587 -36.6587
   -36.6462 -36.6404 -36.6404 -36.6210 -17.1876 -17.1789 -17.1719 -17.1719
   -17.1048 -17.1048 -17.0400 -17.0400 -16.9773 -16.9773 -16.9628 -16.9549
    11.1048  11.6544  11.7909  11.7909  12.3544  12.3544  12.8789  12.8789
    13.1750  13.2289  13.6389  13.7276  13.7276  13.7922  13.9189  13.9189
    13.9536  13.9536  14.0914  14.0914  14.1630  14.1693  14.1708  14.1708
    14.4335  14.4335  14.6590  14.7679  14.7679  14.8297  15.0614  15.0614
    15.2374  15.3391  15.5121  15.5121  15.5698  15.8268  15.9248  15.9248
    16.2424  16.2424  16.6530  16.6530  16.8241  16.8241  16.9669  17.0844
    17.0844  17.0879  17.2620  17.3469  17.3469  17.4140  17.7903  17.7903
    17.9313  17.9313

          k = 0.3333 0.5774-0.3091 (  6408 PWs)   bands (ev):

   -70.7301 -70.7301 -70.7148 -70.7148 -70.6787 -70.6787 -70.6784 -70.6784
   -40.8478 -40.8478 -40.8320 -40.8320 -37.0104 -37.0104 -36.9532 -36.9532
   -36.8443 -36.8443 -36.8309 -36.8309 -36.8025 -36.8025 -36.7685 -36.7685
   -36.7230 -36.7230 -36.6829 -36.6829 -36.6658 -36.6658 -36.6507 -36.6507
   -36.6506 -36.6506 -36.6345 -36.6345 -17.1833 -17.1833 -17.1705 -17.1705
   -17.1080 -17.1080 -17.0372 -17.0372 -16.9783 -16.9783 -16.9588 -16.9588
    11.3429  11.3429  11.8699  11.8699  12.2494  12.2494  12.8973  12.8973
    13.3563  13.3563  13.5757  13.5757  13.7146  13.7146  13.8978  13.8978
    13.9431  13.9431  14.1350  14.1350  14.1545  14.1545  14.1776  14.1776
    14.4059  14.4059  14.7458  14.7458  14.7482  14.7482  15.2060  15.2060
    15.3882  15.3882  15.4103  15.4103  15.6190  15.6190  15.9558  15.9558
    16.1740  16.1740  16.6509  16.6509  16.8286  16.8286  16.9996  16.9996
    17.1261  17.1261  17.3158  17.3158  17.3512  17.3512  17.8009  17.8009
    17.9037  17.9037

     the Fermi energy is    16.1813 ev

!    total energy              =   -3111.25781348 Ry
     estimated scf accuracy    <          8.2E-09 Ry
     smearing contrib. (-TS)   =       0.00010620 Ry
     internal energy E=F+TS    =   -3111.25791968 Ry

     The total energy is F=E-TS. E is the sum of the following terms:
     one-electron contribution =   -1208.33244205 Ry
     hartree contribution      =     698.35175242 Ry
     xc contribution           =    -349.43994792 Ry
     ewald contribution        =   -1642.60130587 Ry
     one-center paw contrib.   =    -609.23597625 Ry

     convergence has been achieved in  27 iterations

     negative rho (up, down):  4.159E-03 0.000E+00

     Forces acting on atoms (cartesian axes, Ry/au):

     atom    1 type  1   force =    -0.01214993    0.00701477    0.00000000
     atom    2 type  1   force =     0.01214993   -0.00701477   -0.00000000
     atom    3 type  1   force =    -0.00000000    0.01402953   -0.00000000
     atom    4 type  1   force =     0.01214993    0.00701477    0.00000000
     atom    5 type  1   force =     0.00000000   -0.01402953   -0.00000000
     atom    6 type  1   force =    -0.01214993   -0.00701477    0.00000000
     atom    7 type  1   force =     0.00000000    0.00000000    0.00000000
     atom    8 type  1   force =     0.00000000   -0.00000000    0.00000000
     atom    9 type  2   force =     0.00000000   -0.00000000   -0.01083671
     atom   10 type  2   force =     0.00000000    0.00000000   -0.01083671
     atom   11 type  2   force =    -0.00000000    0.00000000    0.01083671
     atom   12 type  2   force =    -0.00000000   -0.00000000    0.01083671

     Total force =     0.040629     Total SCF correction =     0.000061


     Computing stress (Cartesian axis) and pressure


     negative rho (up, down):  4.159E-03 0.000E+00
          total   stress  (Ry/bohr**3)                   (kbar)     P=     -212.10
  -0.00152716   0.00000000   0.00000000         -224.65        0.00        0.00
   0.00000000  -0.00152716   0.00000000            0.00     -224.65        0.00
   0.00000000   0.00000000  -0.00127125            0.00        0.00     -187.01


     Writing all to output data dir ./FeAl.save/ :
     XML data file, charge density, pseudopotentials, collected wavefunctions

     init_run     :      2.63s CPU      2.70s WALL (       1 calls)
     electrons    :    133.11s CPU    134.61s WALL (       1 calls)
     forces       :      0.41s CPU      0.42s WALL (       1 calls)
     stress       :      1.47s CPU      1.47s WALL (       1 calls)

     Called by init_run:
     wfcinit      :      1.79s CPU      1.82s WALL (       1 calls)
     potinit      :      0.39s CPU      0.41s WALL (       1 calls)
     hinit0       :      0.39s CPU      0.40s WALL (       1 calls)

     Called by electrons:
     c_bands      :    114.59s CPU    115.77s WALL (      27 calls)
     sum_band     :     12.79s CPU     13.00s WALL (      27 calls)
     v_of_rho     :      0.12s CPU      0.12s WALL (      28 calls)
     newd         :      0.72s CPU      0.73s WALL (      28 calls)
     PAW_pot      :      5.03s CPU      5.08s WALL (      28 calls)
     mix_rho      :      0.03s CPU      0.04s WALL (      27 calls)

     Called by c_bands:
     init_us_2    :      0.52s CPU      0.53s WALL (    1596 calls)
     cegterg      :    111.80s CPU    112.94s WALL (     756 calls)

     Called by *egterg:
     cdiaghg      :     36.10s CPU     36.24s WALL (    2963 calls)
     h_psi        :     54.50s CPU     55.41s WALL (    2991 calls)
     s_psi        :      3.49s CPU      3.51s WALL (    2991 calls)
     g_psi        :      0.16s CPU      0.17s WALL (    2207 calls)

     Called by h_psi:
     h_psi:calbec :      6.54s CPU      6.58s WALL (    2991 calls)
     vloc_psi     :     44.24s CPU     45.09s WALL (    2991 calls)
     add_vuspsi   :      3.57s CPU      3.59s WALL (    2991 calls)

     General routines
     calbec       :     10.21s CPU     10.28s WALL (    4223 calls)
     fft          :      0.43s CPU      0.43s WALL (     387 calls)
     ffts         :      0.23s CPU      0.23s WALL (      55 calls)
     fftw         :     48.64s CPU     49.56s WALL (  477304 calls)
     interpolate  :      0.23s CPU      0.23s WALL (      28 calls)

     Parallel routines

     PWSCF        :    138.22s CPU    143.65s WALL


   This run was terminated on:  14:41: 0  27Oct2025            

=------------------------------------------------------------------------------=
   JOB DONE.
=------------------------------------------------------------------------------=
Note: The following floating-point exceptions are signalling: IEEE_UNDERFLOW_FLAG IEEE_DENORMAL
Note: The following floating-point exceptions are signalling: IEEE_UNDERFLOW_FLAG IEEE_DENORMAL
Note: The following floating-point exceptions are signalling: IEEE_UNDERFLOW_FLAG IEEE_DENORMAL
Note: The following floating-point exceptions are signalling: IEEE_UNDERFLOW_FLAG IEEE_DENORMAL
Note: The following floating-point exceptions are signalling: IEEE_UNDERFLOW_FLAG IEEE_DENORMAL
Note: The following floating-point exceptions are signalling: IEEE_UNDERFLOW_FLAG IEEE_DENORMAL
Note: The following floating-point exceptions are signalling: IEEE_UNDERFLOW_FLAG IEEE_DENORMAL
Note: The following floating-point exceptions are signalling: IEEE_UNDERFLOW_FLAG IEEE_DENORMAL
Note: The following floating-point exceptions are signalling: IEEE_UNDERFLOW_FLAG IEEE_DENORMAL
Note: The following floating-point exceptions are signalling: IEEE_UNDERFLOW_FLAG IEEE_DENORMAL
Note: The following floating-point exceptions are signalling: IEEE_UNDERFLOW_FLAG IEEE_DENORMAL
Note: The following floating-point exceptions are signalling: IEEE_UNDERFLOW_FLAG IEEE_DENORMAL
Note: The following floating-point exceptions are signalling: IEEE_UNDERFLOW_FLAG IEEE_DENORMAL
Note: The following floating-point exceptions are signalling: IEEE_UNDERFLOW_FLAG IEEE_DENORMAL
Note: The following floating-point exceptions are signalling: IEEE_UNDERFLOW_FLAG IEEE_DENORMAL
Note: The following floating-point exceptions are signalling: IEEE_UNDERFLOW_FLAG IEEE_DENORMAL
