
     Program PWSCF v.7.4 starts on 27Oct2025 at 14:35:14 

     This program is part of the open-source Quantum ESPRESSO suite
     for quantum simulation of materials; please cite
         "P. Giannozzi et al., J. Phys.:Condens. Matter 21 395502 (2009);
         "P. Giannozzi et al., J. Phys.:Condens. Matter 29 465901 (2017);
         "P. Giannozzi et al., J. Chem. Phys. 152 154105 (2020);
          URL http://www.quantum-espresso.org", 
     in publications or presentations arising from this work. More details at
     http://www.quantum-espresso.org/quote

     Parallel version (MPI & OpenMP), running on      16 processor cores
     Number of MPI processes:                16
     Threads/MPI process:                     1

     MPI processes distributed on     1 nodes
     229058 MiB available memory on the printing compute node when the environment starts

     Reading input from TiFe2_ecutwfc_convergence/TiFe2_ecut30.in

     Current dimensions of program PWSCF are:
     Max number of different atomic species (ntypx) = 10
     Max number of k-points (npk) =  40000
     Max angular momentum in pseudopotentials (lmaxx) =  4
     file Fe.pbe-spn-kjpaw_psl.0.2.1.UPF: wavefunction(s)  3D renormalized

     IMPORTANT: XC functional enforced from input :
     Exchange-correlation= PBE
                           (   1   4   3   4   0   0   0)
     Any further DFT definition will be discarded
     Please, verify this is what you really want

     Message from routine setup:
     using ibrav=0 with symmetry is DISCOURAGED, use correct ibrav instead

     R & G space division:  proc/nbgrp/npool/nimage =      16
     Subspace diagonalization in iterative solution of the eigenvalue problem:
     a serial algorithm will be used


     Parallelization info
     --------------------
     sticks:   dense  smooth     PW     G-vecs:    dense   smooth      PW
     Min          53      42     12                 2079     1488     238
     Max          54      43     13                 2084     1495     247
     Sum         859     685    199                33315    23847    3875

     Using Slab Decomposition



     bravais-lattice index     =            0
     lattice parameter (alat)  =       9.1568  a.u.
     unit-cell volume          =    1075.5644 (a.u.)^3
     number of atoms/cell      =           12
     number of atomic types    =            2
     number of electrons       =       176.00
     number of Kohn-Sham states=          106
     kinetic-energy cutoff     =      30.0000  Ry
     charge density cutoff     =     150.0000  Ry
     scf convergence threshold =      1.0E-08
     mixing beta               =       0.7000
     number of iterations used =            8  plain     mixing
     Exchange-correlation= PBE
                           (   1   4   3   4   0   0   0)

     celldm(1)=   9.156781  celldm(2)=   0.000000  celldm(3)=   0.000000
     celldm(4)=   0.000000  celldm(5)=   0.000000  celldm(6)=   0.000000

     crystal axes: (cart. coord. in units of alat)
               a(1) = (   1.000000   0.000000   0.000000 )  
               a(2) = (  -0.500000   0.866025   0.000000 )  
               a(3) = (   0.000000   0.000000   1.617623 )  

     reciprocal axes: (cart. coord. in units 2 pi/alat)
               b(1) = (  1.000000  0.577350 -0.000000 )  
               b(2) = (  0.000000  1.154701  0.000000 )  
               b(3) = (  0.000000 -0.000000  0.618191 )  


     PseudoPot. # 1 for Fe read from file:
     ./Fe.pbe-spn-kjpaw_psl.0.2.1.UPF
     MD5 check sum: e86618425769142926afa95317d90200
     Pseudo is Projector augmented-wave + core cor, Zval = 16.0
     Generated using "atomic" code by A. Dal Corso  v.5.0.99 svn rev. 10869
     Shape of augmentation charge: PSQ
     Using radial grid of 1191 points,  6 beta functions with: 
                l(1) =   0
                l(2) =   0
                l(3) =   1
                l(4) =   1
                l(5) =   2
                l(6) =   2
     Q(r) pseudized with 0 coefficients 


     PseudoPot. # 2 for Ti read from file:
     ./Ti_pbe_v1.4.uspp.F.UPF
     MD5 check sum: 88a00a6731bd790ddea75d31a80cb452
     Pseudo is Ultrasoft + core correction, Zval = 12.0
     Generated by new atomic code, or converted to UPF format
     Using radial grid of  851 points,  6 beta functions with: 
                l(1) =   0
                l(2) =   0
                l(3) =   1
                l(4) =   1
                l(5) =   2
                l(6) =   2
     Q(r) pseudized with  6 coefficients,  rinner =    1.000   1.000   1.000
                                                       1.000   1.000

     atomic species   valence    mass     pseudopotential
     Fe               16.00    55.84500     Fe( 1.00)
     Ti               12.00    47.86700     Ti( 1.00)

     24 Sym. Ops., with inversion, found (12 have fractional translation)



   Cartesian axes

     site n.     atom                  positions (alat units)
         1        Fe     tau(   1) = (   0.7465670   0.1463196   0.4044057  )
         2        Fe     tau(   2) = (  -0.2465670   0.7197058   1.2132171  )
         3        Fe     tau(   3) = (  -0.0000000   0.2926392   1.2132171  )
         4        Fe     tau(   4) = (   0.2534330   0.1463196   0.4044057  )
         5        Fe     tau(   5) = (   0.5000000   0.5733862   0.4044057  )
         6        Fe     tau(   6) = (   0.2465670   0.7197058   1.2132171  )
         7        Fe     tau(   7) = (   0.0000000   0.0000000   0.0000000  )
         8        Fe     tau(   8) = (   0.0000000   0.0000000   0.8088114  )
         9        Ti     tau(   9) = (   0.5000000   0.2886751   1.5200090  )
        10        Ti     tau(  10) = (  -0.0000000   0.5773503   0.7111976  )
        11        Ti     tau(  11) = (  -0.0000000   0.5773503   0.0976138  )
        12        Ti     tau(  12) = (   0.5000000   0.2886751   0.9064252  )

     number of k points=    28  Marzari-Vanderbilt smearing, width (Ry)=  0.0050
                       cart. coord. in units 2pi/alat
        k(    1) = (   0.0000000   0.0000000   0.0000000), wk =   0.0092593
        k(    2) = (   0.0000000   0.0000000   0.1030318), wk =   0.0185185
        k(    3) = (   0.0000000   0.0000000   0.2060637), wk =   0.0185185
        k(    4) = (   0.0000000   0.0000000  -0.3090955), wk =   0.0092593
        k(    5) = (   0.0000000   0.1924501   0.0000000), wk =   0.0555556
        k(    6) = (   0.0000000   0.1924501   0.1030318), wk =   0.1111111
        k(    7) = (   0.0000000   0.1924501   0.2060637), wk =   0.1111111
        k(    8) = (   0.0000000   0.1924501  -0.3090955), wk =   0.0555556
        k(    9) = (   0.0000000   0.3849002   0.0000000), wk =   0.0555556
        k(   10) = (   0.0000000   0.3849002   0.1030318), wk =   0.1111111
        k(   11) = (   0.0000000   0.3849002   0.2060637), wk =   0.1111111
        k(   12) = (   0.0000000   0.3849002  -0.3090955), wk =   0.0555556
        k(   13) = (   0.0000000  -0.5773503   0.0000000), wk =   0.0277778
        k(   14) = (   0.0000000  -0.5773503   0.1030318), wk =   0.0555556
        k(   15) = (   0.0000000  -0.5773503   0.2060637), wk =   0.0555556
        k(   16) = (   0.0000000  -0.5773503  -0.3090955), wk =   0.0277778
        k(   17) = (   0.1666667   0.2886751   0.0000000), wk =   0.0555556
        k(   18) = (   0.1666667   0.2886751   0.1030318), wk =   0.1111111
        k(   19) = (   0.1666667   0.2886751   0.2060637), wk =   0.1111111
        k(   20) = (   0.1666667   0.2886751  -0.3090955), wk =   0.0555556
        k(   21) = (   0.1666667   0.4811252   0.0000000), wk =   0.1111111
        k(   22) = (   0.1666667   0.4811252   0.1030318), wk =   0.2222222
        k(   23) = (   0.1666667   0.4811252   0.2060637), wk =   0.2222222
        k(   24) = (   0.1666667   0.4811252  -0.3090955), wk =   0.1111111
        k(   25) = (   0.3333333   0.5773503   0.0000000), wk =   0.0185185
        k(   26) = (   0.3333333   0.5773503   0.1030318), wk =   0.0370370
        k(   27) = (   0.3333333   0.5773503   0.2060637), wk =   0.0370370
        k(   28) = (   0.3333333   0.5773503  -0.3090955), wk =   0.0185185

     Dense  grid:    33315 G-vectors     FFT dimensions: (  36,  36,  60)

     Smooth grid:    23847 G-vectors     FFT dimensions: (  32,  32,  54)

     Estimated max dynamical RAM per process >      19.25 MB

     Estimated total dynamical RAM >     307.97 MB

     Check: negative core charge=   -0.003637

     Initial potential from superposition of free atoms

     starting charge     171.9963, renormalised to     176.0000

     negative rho (up, down):  7.782E-03 0.000E+00
     Starting wfcs are  144 randomized atomic wfcs
     Checking if some PAW data can be deallocated... 

     total cpu time spent up to now is        1.9 secs

     per-process dynamical memory:   125.4 Mb

     Self-consistent Calculation

     iteration #  1     ecut=    30.00 Ry     beta= 0.70
     Davidson diagonalization with overlap
     ethr =  1.00E-02,  avg # of iterations =  2.2

     negative rho (up, down):  1.541E-02 0.000E+00

     total cpu time spent up to now is        4.7 secs

     total energy              =   -3002.94395073 Ry
     estimated scf accuracy    <     131.50156031 Ry

     iteration #  2     ecut=    30.00 Ry     beta= 0.70
     Davidson diagonalization with overlap
     ethr =  1.00E-02,  avg # of iterations =  5.6

     negative rho (up, down):  5.929E-03 0.000E+00

     total cpu time spent up to now is        9.9 secs

     total energy              =   -3079.54860801 Ry
     estimated scf accuracy    <     706.17024212 Ry

     iteration #  3     ecut=    30.00 Ry     beta= 0.70
     Davidson diagonalization with overlap
     ethr =  1.00E-02,  avg # of iterations =  4.8
     Minimization algorithm failed to find Fermi energy: reverting to bisection
     Possible cause: smearing is larger than the electronic band-gap.

     negative rho (up, down):  1.592E-03 0.000E+00

     total cpu time spent up to now is       14.6 secs

     total energy              =   -3124.82913214 Ry
     estimated scf accuracy    <     105.85560947 Ry

     iteration #  4     ecut=    30.00 Ry     beta= 0.70
     Davidson diagonalization with overlap
     ethr =  1.00E-02,  avg # of iterations =  1.3

     negative rho (up, down):  1.181E-04 0.000E+00

     total cpu time spent up to now is       16.7 secs

     total energy              =   -3116.48166467 Ry
     estimated scf accuracy    <      74.61325921 Ry

     iteration #  5     ecut=    30.00 Ry     beta= 0.70
     Davidson diagonalization with overlap
     ethr =  1.00E-02,  avg # of iterations =  1.9

     total cpu time spent up to now is       19.0 secs

     total energy              =   -3114.82900496 Ry
     estimated scf accuracy    <      40.83104901 Ry

     iteration #  6     ecut=    30.00 Ry     beta= 0.70
     Davidson diagonalization with overlap
     ethr =  1.00E-02,  avg # of iterations =  1.0

     total cpu time spent up to now is       21.1 secs

     total energy              =   -3112.25559856 Ry
     estimated scf accuracy    <      33.96257242 Ry

     iteration #  7     ecut=    30.00 Ry     beta= 0.70
     Davidson diagonalization with overlap
     ethr =  1.00E-02,  avg # of iterations =  1.1

     negative rho (up, down):  1.160E-03 0.000E+00

     total cpu time spent up to now is       23.1 secs

     total energy              =   -3110.59208144 Ry
     estimated scf accuracy    <      21.96552733 Ry

     iteration #  8     ecut=    30.00 Ry     beta= 0.70
     Davidson diagonalization with overlap
     ethr =  1.00E-02,  avg # of iterations =  1.0

     negative rho (up, down):  1.270E-03 0.000E+00

     total cpu time spent up to now is       25.2 secs

     total energy              =   -3110.74957725 Ry
     estimated scf accuracy    <      11.83375758 Ry

     iteration #  9     ecut=    30.00 Ry     beta= 0.70
     Davidson diagonalization with overlap
     ethr =  6.72E-03,  avg # of iterations =  1.0

     negative rho (up, down):  2.581E-03 0.000E+00

     total cpu time spent up to now is       27.2 secs

     total energy              =   -3110.03550956 Ry
     estimated scf accuracy    <      11.28797950 Ry

     iteration # 10     ecut=    30.00 Ry     beta= 0.70
     Davidson diagonalization with overlap
     ethr =  6.41E-03,  avg # of iterations =  1.1

     negative rho (up, down):  5.764E-03 0.000E+00

     total cpu time spent up to now is       29.3 secs

     total energy              =   -3109.48729997 Ry
     estimated scf accuracy    <       5.15782449 Ry

     iteration # 11     ecut=    30.00 Ry     beta= 0.70
     Davidson diagonalization with overlap
     ethr =  2.93E-03,  avg # of iterations =  2.8

     negative rho (up, down):  6.225E-03 0.000E+00

     total cpu time spent up to now is       31.9 secs

     total energy              =   -3109.94661056 Ry
     estimated scf accuracy    <       0.22143294 Ry

     iteration # 12     ecut=    30.00 Ry     beta= 0.70
     Davidson diagonalization with overlap
     ethr =  1.26E-04,  avg # of iterations =  7.6

     negative rho (up, down):  6.190E-03 0.000E+00

     total cpu time spent up to now is       37.7 secs

     total energy              =   -3110.46255199 Ry
     estimated scf accuracy    <      16.88167206 Ry

     iteration # 13     ecut=    30.00 Ry     beta= 0.70
     Davidson diagonalization with overlap
     ethr =  1.26E-04,  avg # of iterations =  1.0

     negative rho (up, down):  6.092E-03 0.000E+00

     total cpu time spent up to now is       39.7 secs

     total energy              =   -3110.45196314 Ry
     estimated scf accuracy    <      16.90722470 Ry

     iteration # 14     ecut=    30.00 Ry     beta= 0.70
     Davidson diagonalization with overlap
     ethr =  1.26E-04,  avg # of iterations =  1.0

     negative rho (up, down):  5.771E-03 0.000E+00

     total cpu time spent up to now is       41.7 secs

     total energy              =   -3110.10311050 Ry
     estimated scf accuracy    <      17.11007829 Ry

     iteration # 15     ecut=    30.00 Ry     beta= 0.70
     Davidson diagonalization with overlap
     ethr =  1.26E-04,  avg # of iterations =  3.4

     negative rho (up, down):  5.714E-03 0.000E+00

     total cpu time spent up to now is       44.5 secs

     total energy              =   -3110.03721732 Ry
     estimated scf accuracy    <       9.02434519 Ry

     iteration # 16     ecut=    30.00 Ry     beta= 0.70
     Davidson diagonalization with overlap
     ethr =  1.26E-04,  avg # of iterations =  2.2

     negative rho (up, down):  5.564E-03 0.000E+00

     total cpu time spent up to now is       46.9 secs

     total energy              =   -3109.75697832 Ry
     estimated scf accuracy    <       5.85498222 Ry

     iteration # 17     ecut=    30.00 Ry     beta= 0.70
     Davidson diagonalization with overlap
     ethr =  1.26E-04,  avg # of iterations =  6.4

     negative rho (up, down):  4.951E-03 0.000E+00

     total cpu time spent up to now is       51.5 secs

     total energy              =   -3109.87242423 Ry
     estimated scf accuracy    <       0.16479671 Ry

     iteration # 18     ecut=    30.00 Ry     beta= 0.70
     Davidson diagonalization with overlap
     ethr =  9.36E-05,  avg # of iterations =  4.2

     negative rho (up, down):  4.776E-03 0.000E+00

     total cpu time spent up to now is       54.9 secs

     total energy              =   -3109.89920357 Ry
     estimated scf accuracy    <       0.90272506 Ry

     iteration # 19     ecut=    30.00 Ry     beta= 0.70
     Davidson diagonalization with overlap
     ethr =  9.36E-05,  avg # of iterations =  1.1

     negative rho (up, down):  4.633E-03 0.000E+00

     total cpu time spent up to now is       56.9 secs

     total energy              =   -3109.91659431 Ry
     estimated scf accuracy    <       0.09622868 Ry

     iteration # 20     ecut=    30.00 Ry     beta= 0.70
     Davidson diagonalization with overlap
     ethr =  5.47E-05,  avg # of iterations =  1.0

     negative rho (up, down):  4.744E-03 0.000E+00

     total cpu time spent up to now is       58.9 secs

     total energy              =   -3109.91631527 Ry
     estimated scf accuracy    <       0.04290270 Ry

     iteration # 21     ecut=    30.00 Ry     beta= 0.70
     Davidson diagonalization with overlap
     ethr =  2.44E-05,  avg # of iterations =  1.7

     negative rho (up, down):  4.801E-03 0.000E+00

     total cpu time spent up to now is       61.1 secs

     total energy              =   -3109.91541605 Ry
     estimated scf accuracy    <       0.02293499 Ry

     iteration # 22     ecut=    30.00 Ry     beta= 0.70
     Davidson diagonalization with overlap
     ethr =  1.30E-05,  avg # of iterations =  2.5

     negative rho (up, down):  4.862E-03 0.000E+00

     total cpu time spent up to now is       63.6 secs

     total energy              =   -3109.91546187 Ry
     estimated scf accuracy    <       0.00386360 Ry

     iteration # 23     ecut=    30.00 Ry     beta= 0.70
     Davidson diagonalization with overlap
     ethr =  2.20E-06,  avg # of iterations =  5.4

     negative rho (up, down):  5.005E-03 0.000E+00

     total cpu time spent up to now is       67.3 secs

     total energy              =   -3109.91652529 Ry
     estimated scf accuracy    <       0.00874577 Ry

     iteration # 24     ecut=    30.00 Ry     beta= 0.70
     Davidson diagonalization with overlap
     ethr =  2.20E-06,  avg # of iterations =  2.1

     negative rho (up, down):  4.928E-03 0.000E+00

     total cpu time spent up to now is       69.7 secs

     total energy              =   -3109.91603917 Ry
     estimated scf accuracy    <       0.00830120 Ry

     iteration # 25     ecut=    30.00 Ry     beta= 0.70
     Davidson diagonalization with overlap
     ethr =  2.20E-06,  avg # of iterations =  1.1

     negative rho (up, down):  4.904E-03 0.000E+00

     total cpu time spent up to now is       71.7 secs

     total energy              =   -3109.91622699 Ry
     estimated scf accuracy    <       0.00060282 Ry

     iteration # 26     ecut=    30.00 Ry     beta= 0.70
     Davidson diagonalization with overlap
     ethr =  3.43E-07,  avg # of iterations =  3.3

     negative rho (up, down):  4.905E-03 0.000E+00

     total cpu time spent up to now is       74.5 secs

     total energy              =   -3109.91627899 Ry
     estimated scf accuracy    <       0.00001046 Ry

     iteration # 27     ecut=    30.00 Ry     beta= 0.70
     Davidson diagonalization with overlap
     ethr =  5.94E-09,  avg # of iterations =  5.0

     negative rho (up, down):  4.907E-03 0.000E+00

     total cpu time spent up to now is       78.5 secs

     total energy              =   -3109.91628300 Ry
     estimated scf accuracy    <       0.00002434 Ry

     iteration # 28     ecut=    30.00 Ry     beta= 0.70
     Davidson diagonalization with overlap
     ethr =  5.94E-09,  avg # of iterations =  2.1

     negative rho (up, down):  4.906E-03 0.000E+00

     total cpu time spent up to now is       80.9 secs

     total energy              =   -3109.91628485 Ry
     estimated scf accuracy    <       0.00000294 Ry

     iteration # 29     ecut=    30.00 Ry     beta= 0.70
     Davidson diagonalization with overlap
     ethr =  1.67E-09,  avg # of iterations =  2.9

     negative rho (up, down):  4.906E-03 0.000E+00

     total cpu time spent up to now is       83.5 secs

     total energy              =   -3109.91628480 Ry
     estimated scf accuracy    <       0.00000578 Ry

     iteration # 30     ecut=    30.00 Ry     beta= 0.70
     Davidson diagonalization with overlap
     ethr =  1.67E-09,  avg # of iterations =  1.0

     negative rho (up, down):  4.905E-03 0.000E+00

     total cpu time spent up to now is       85.5 secs

     total energy              =   -3109.91628489 Ry
     estimated scf accuracy    <       0.00000074 Ry

     iteration # 31     ecut=    30.00 Ry     beta= 0.70
     Davidson diagonalization with overlap
     ethr =  4.23E-10,  avg # of iterations =  1.9

     negative rho (up, down):  4.906E-03 0.000E+00

     total cpu time spent up to now is       87.8 secs

     total energy              =   -3109.91628493 Ry
     estimated scf accuracy    <       0.00000001 Ry

     iteration # 32     ecut=    30.00 Ry     beta= 0.70
     Davidson diagonalization with overlap
     ethr =  7.06E-12,  avg # of iterations =  5.8

     negative rho (up, down):  4.905E-03 0.000E+00

     total cpu time spent up to now is       91.9 secs

     End of self-consistent calculation

          k = 0.0000 0.0000 0.0000 (  2971 PWs)   bands (ev):

   -70.9578 -70.9380 -70.9241 -70.9014 -70.8802 -70.8802 -70.8741 -70.8741
   -40.4390 -40.4248 -40.3894 -40.3735 -36.3153 -36.2934 -36.1968 -36.0706
   -36.0706 -36.0586 -36.0586 -36.0494 -36.0494 -36.0035 -35.9571 -35.9571
   -35.8969 -35.8969 -35.8384 -35.7885 -35.7848 -35.7848 -35.7833 -35.7000
   -35.7000 -35.6856 -35.6815 -35.6815 -16.7597 -16.7597 -16.7462 -16.7462
   -16.7346 -16.7334 -16.5937 -16.5897 -16.5850 -16.5850 -16.5708 -16.5708
     9.4572  11.5804  12.4372  12.5119  13.0064  13.0887  13.3748  13.3748
    13.6991  13.6991  13.7732  13.8390  13.8390  13.8970  14.4041  14.4041
    14.4543  14.4543  14.8310  14.9320  14.9320  14.9672  14.9672  15.3979
    15.3979  15.7441  16.2167  16.2167  16.3226  16.3226  16.3302  16.3302
    16.3905  16.4022  16.4022  16.4524  16.5113  16.5951  16.5951  16.6109
    16.6109  16.7176  16.7176  16.8894  17.2201  17.2649  17.2649  17.6990
    17.6990  17.7040  17.7040  17.7444  17.9576  17.9576  18.1014  18.1016
    18.2703  18.2703

          k = 0.0000 0.0000 0.1030 (  2942 PWs)   bands (ev):

   -70.9562 -70.9425 -70.9180 -70.8973 -70.8754 -70.8754 -70.8714 -70.8714
   -40.4382 -40.4261 -40.3878 -40.3743 -36.3063 -36.2746 -36.1633 -36.0546
   -36.0546 -36.0513 -36.0513 -36.0309 -36.0309 -36.0187 -35.9480 -35.9480
   -35.8782 -35.8782 -35.8262 -35.7839 -35.7839 -35.7737 -35.7611 -35.7010
   -35.6914 -35.6914 -35.6770 -35.6770 -16.7588 -16.7588 -16.7472 -16.7472
   -16.7343 -16.7332 -16.5938 -16.5902 -16.5840 -16.5840 -16.5717 -16.5717
     9.5410  11.2330  12.5157  12.5868  12.9544  13.3080  13.3944  13.3944
    13.6368  13.6682  13.6682  13.8821  13.8821  13.9795  14.3450  14.3450
    14.4760  14.4760  14.8039  14.8039  14.9537  15.1367  15.1367  15.4593
    15.4593  15.7908  16.1224  16.1224  16.1579  16.1579  16.3131  16.3631
    16.3631  16.4563  16.4977  16.4977  16.5074  16.5448  16.5448  16.6617
    16.6617  16.7442  16.7442  16.8230  17.2238  17.3337  17.3337  17.6801
    17.6801  17.7052  17.7052  17.8830  17.9598  17.9598  18.1015  18.1016
    18.2562  18.2562

          k = 0.0000 0.0000 0.2061 (  2942 PWs)   bands (ev):

   -70.9548 -70.9444 -70.9077 -70.8969 -70.8760 -70.8760 -70.8758 -70.8758
   -40.4362 -40.4293 -40.3841 -40.3767 -36.3036 -36.2943 -36.1100 -36.0638
   -36.0638 -36.0557 -36.0557 -36.0227 -36.0227 -36.0109 -35.9702 -35.9702
   -35.8552 -35.8552 -35.8151 -35.8151 -35.7877 -35.7821 -35.7610 -35.7324
   -35.6780 -35.6780 -35.6710 -35.6710 -16.7565 -16.7565 -16.7498 -16.7498
   -16.7334 -16.7328 -16.5936 -16.5916 -16.5812 -16.5812 -16.5742 -16.5742
     9.7796  10.6801  12.5263  12.5929  13.1370  13.4418  13.4418  13.4659
    13.5944  13.5944  13.6047  13.9714  13.9714  13.9785  14.2216  14.2216
    14.5232  14.5232  14.6877  14.6877  15.3386  15.3559  15.3559  15.5828
    15.5828  15.8825  15.9285  15.9285  15.9816  15.9816  16.1645  16.4024
    16.4024  16.4598  16.4670  16.4890  16.4890  16.4965  16.5117  16.5117
    16.5646  16.5646  16.9997  16.9997  17.3984  17.4771  17.4771  17.5304
    17.5304  17.6864  17.6864  17.9976  18.0292  18.0292  18.1015  18.1016
    18.2091  18.2091

          k = 0.0000 0.0000-0.3091 (  2978 PWs)   bands (ev):

   -70.9542 -70.9542 -70.9012 -70.9012 -70.8821 -70.8821 -70.8821 -70.8821
   -40.4331 -40.4331 -40.3804 -40.3804 -36.3185 -36.3185 -36.0816 -36.0816
   -36.0816 -36.0816 -36.0591 -36.0591 -36.0143 -36.0143 -36.0143 -36.0143
   -35.8515 -35.8515 -35.8515 -35.8515 -35.7882 -35.7881 -35.7749 -35.7749
   -35.6778 -35.6778 -35.6778 -35.6778 -16.7532 -16.7532 -16.7532 -16.7532
   -16.7328 -16.7328 -16.5929 -16.5929 -16.5776 -16.5776 -16.5776 -16.5776
    10.1646  10.1646  12.5477  12.5477  13.3094  13.3094  13.5103  13.5103
    13.5103  13.5103  13.8425  13.8425  14.0875  14.0875  14.0875  14.0875
    14.5938  14.5938  14.5938  14.5938  15.5708  15.5708  15.5708  15.5708
    15.8457  15.8457  15.8457  15.8457  15.8896  15.8896  16.0129  16.0129
    16.4476  16.4476  16.4476  16.4476  16.4817  16.4817  16.5075  16.5075
    16.5075  16.5075  17.2771  17.2771  17.2771  17.2771  17.6108  17.6108
    17.6108  17.6108  17.7281  17.7281  18.1015  18.1015  18.1287  18.1287
    18.1287  18.1287

          k = 0.0000 0.1925 0.0000 (  2964 PWs)   bands (ev):

   -70.9575 -70.9337 -70.9243 -70.9000 -70.8788 -70.8782 -70.8756 -70.8737
   -40.4362 -40.4218 -40.3923 -40.3767 -36.2950 -36.2395 -36.1738 -36.0799
   -36.0573 -36.0465 -36.0451 -36.0394 -36.0370 -35.9808 -35.9470 -35.9452
   -35.9003 -35.8907 -35.8412 -35.8070 -35.7937 -35.7922 -35.7797 -35.7304
   -35.7203 -35.7028 -35.6907 -35.6814 -16.7706 -16.7640 -16.7500 -16.7413
   -16.7373 -16.7153 -16.6131 -16.5904 -16.5859 -16.5810 -16.5667 -16.5601
     9.7401  11.8082  12.6034  12.6611  13.0688  13.1440  13.3707  13.4440
    13.5973  13.6593  13.8806  13.8942  13.9307  14.0770  14.3689  14.4716
    14.4922  14.5589  14.8983  14.9071  14.9293  14.9618  15.0160  15.2805
    15.3642  15.5640  15.6768  15.8651  15.9428  16.0029  16.0416  16.2706
    16.2905  16.3237  16.3698  16.5165  16.5870  16.6081  16.6341  16.6524
    16.8599  16.8789  16.9407  17.0281  17.1058  17.2843  17.3896  17.5030
    17.5644  17.5994  17.7115  17.7913  17.8862  18.0636  18.0736  18.1149
    18.1165  18.4469

          k = 0.0000 0.1925 0.1030 (  2964 PWs)   bands (ev):

   -70.9571 -70.9383 -70.9193 -70.9006 -70.8793 -70.8776 -70.8751 -70.8743
   -40.4355 -40.4232 -40.3908 -40.3774 -36.2945 -36.2531 -36.1485 -36.0754
   -36.0661 -36.0544 -36.0480 -36.0415 -36.0236 -35.9944 -35.9672 -35.9543
   -35.8802 -35.8729 -35.8325 -35.8119 -35.7914 -35.7900 -35.7833 -35.7369
   -35.7196 -35.6997 -35.6918 -35.6875 -16.7691 -16.7631 -16.7510 -16.7456
   -16.7335 -16.7163 -16.6122 -16.5942 -16.5820 -16.5799 -16.5676 -16.5613
     9.8203  11.4716  12.6631  12.7540  13.0225  13.2672  13.4379  13.4664
    13.5358  13.7170  13.8175  13.8887  13.9562  14.0840  14.3558  14.4288
    14.4735  14.5575  14.7601  14.8428  14.9856  15.1285  15.1678  15.3423
    15.4124  15.5928  15.6916  15.8411  15.9077  15.9648  16.0917  16.2324
    16.2631  16.3238  16.3433  16.4498  16.5538  16.5908  16.6581  16.6633
    16.8161  16.8260  16.9549  16.9800  17.0327  17.3976  17.4238  17.4763
    17.6119  17.6966  17.7232  17.8340  17.8613  17.9820  18.0829  18.1205
    18.1588  18.4224

          k = 0.0000 0.1925 0.2061 (  2977 PWs)   bands (ev):

   -70.9558 -70.9444 -70.9125 -70.9044 -70.8814 -70.8805 -70.8786 -70.8779
   -40.4336 -40.4267 -40.3872 -40.3798 -36.2961 -36.2813 -36.1081 -36.0803
   -36.0709 -36.0595 -36.0546 -36.0404 -36.0197 -36.0146 -36.0075 -35.9829
   -35.8606 -35.8576 -35.8310 -35.8181 -35.8074 -35.8031 -35.7921 -35.7475
   -35.7187 -35.7102 -35.6973 -35.6890 -16.7649 -16.7607 -16.7537 -16.7520
   -16.7282 -16.7190 -16.6093 -16.5996 -16.5772 -16.5761 -16.5701 -16.5649
    10.0548  10.9253  12.6708  12.7378  13.1867  13.3314  13.4720  13.5283
    13.6515  13.6921  13.7221  13.8678  14.0460  14.0743  14.2467  14.3075
    14.5176  14.5870  14.6583  14.7322  15.2514  15.3456  15.3718  15.4828
    15.4872  15.6487  15.7021  15.8110  15.8165  15.9129  16.0634  16.1629
    16.2410  16.2715  16.3230  16.3456  16.4081  16.5092  16.6366  16.6810
    16.7222  16.7524  16.9820  17.0718  17.1331  17.3505  17.4197  17.5387
    17.5415  17.7117  17.8157  17.8707  17.9276  17.9678  18.0686  18.1252
    18.1662  18.3524

          k = 0.0000 0.1925-0.3091 (  2972 PWs)   bands (ev):

   -70.9500 -70.9500 -70.9070 -70.9070 -70.8792 -70.8792 -70.8792 -70.8792
   -40.4304 -40.4304 -40.3832 -40.3832 -36.2917 -36.2917 -36.0827 -36.0827
   -36.0574 -36.0574 -36.0466 -36.0466 -36.0264 -36.0264 -36.0025 -36.0025
   -35.8396 -35.8396 -35.8366 -35.8366 -35.7998 -35.7998 -35.7691 -35.7691
   -35.7099 -35.7099 -35.6891 -35.6891 -16.7588 -16.7588 -16.7572 -16.7572
   -16.7232 -16.7232 -16.6050 -16.6050 -16.5736 -16.5736 -16.5701 -16.5701
    10.4351  10.4351  12.6906  12.6906  13.2959  13.2959  13.5639  13.5639
    13.6194  13.6194  13.8168  13.8168  14.1204  14.1204  14.1678  14.1678
    14.5840  14.5840  14.6474  14.6474  15.4729  15.4729  15.5194  15.5194
    15.6411  15.6411  15.6816  15.6816  15.8559  15.8559  16.0197  16.0197
    16.2404  16.2404  16.3100  16.3100  16.3764  16.3764  16.6572  16.6572
    16.6935  16.6935  17.2006  17.2006  17.2155  17.2155  17.3768  17.3768
    17.6463  17.6463  17.8501  17.8501  18.0100  18.0100  18.0195  18.0195
    18.2581  18.2581

          k = 0.0000 0.3849 0.0000 (  2990 PWs)   bands (ev):

   -70.9539 -70.9253 -70.9248 -70.9071 -70.8920 -70.8830 -70.8782 -70.8779
   -40.4291 -40.4142 -40.4002 -40.3845 -36.2646 -36.1989 -36.1564 -36.0940
   -36.0890 -36.0579 -36.0456 -36.0265 -35.9862 -35.9630 -35.9507 -35.9397
   -35.9082 -35.9068 -35.9047 -35.8580 -35.8440 -35.8186 -35.8153 -35.7818
   -35.7489 -35.7092 -35.6915 -35.6879 -16.7780 -16.7722 -16.7570 -16.7468
   -16.7302 -16.6889 -16.6404 -16.6019 -16.5774 -16.5734 -16.5590 -16.5525
    10.5421  12.3337  12.8943  13.0179  13.1226  13.1283  13.2759  13.5649
    13.6212  13.7191  14.0526  14.1252  14.1992  14.3048  14.3673  14.5005
    14.6642  14.8046  14.8367  14.9087  14.9401  14.9480  15.0453  15.0651
    15.1613  15.2087  15.2603  15.3697  15.4335  15.5868  15.6375  15.7553
    15.9756  16.1831  16.2178  16.4368  16.5704  16.6021  16.6025  16.6491
    16.7982  16.9215  16.9812  17.1542  17.1995  17.2515  17.3211  17.3684
    17.4269  17.5097  17.5803  17.7365  17.9440  18.1235  18.1539  18.2017
    18.4811  18.7313

          k = 0.0000 0.3849 0.1030 (  2982 PWs)   bands (ev):

   -70.9523 -70.9306 -70.9206 -70.9053 -70.8892 -70.8807 -70.8787 -70.8779
   -40.4284 -40.4161 -40.3982 -40.3851 -36.2564 -36.2151 -36.1354 -36.1030
   -36.0702 -36.0513 -36.0418 -36.0263 -35.9858 -35.9694 -35.9607 -35.9518
   -35.8964 -35.8936 -35.8793 -35.8506 -35.8408 -35.8157 -35.8091 -35.7898
   -35.7390 -35.7060 -35.6927 -35.6899 -16.7760 -16.7712 -16.7581 -16.7490
   -16.7281 -16.6930 -16.6365 -16.6039 -16.5755 -16.5724 -16.5599 -16.5540
    10.6181  12.0738  12.8396  13.0154  13.1998  13.2563  13.3081  13.5173
    13.6532  13.7575  14.0524  14.0654  14.2830  14.2874  14.3499  14.4937
    14.6258  14.7487  14.8034  14.8261  14.9189  14.9893  15.0585  15.1491
    15.1732  15.2563  15.3187  15.4379  15.5083  15.5980  15.6702  15.7742
    15.9902  16.1823  16.1910  16.3749  16.4897  16.5904  16.6220  16.6446
    16.6700  16.9298  16.9962  17.1533  17.2117  17.2644  17.2701  17.3419
    17.3821  17.5601  17.6908  17.7411  17.8954  18.0539  18.1508  18.2376
    18.5788  18.6944

          k = 0.0000 0.3849 0.2061 (  2984 PWs)   bands (ev):

   -70.9492 -70.9385 -70.9140 -70.9080 -70.8883 -70.8809 -70.8803 -70.8786
   -40.4266 -40.4198 -40.3942 -40.3872 -36.2582 -36.2228 -36.1178 -36.0941
   -36.0739 -36.0515 -36.0346 -36.0233 -35.9999 -35.9863 -35.9775 -35.9692
   -35.8877 -35.8736 -35.8679 -35.8509 -35.8335 -35.8190 -35.8156 -35.8054
   -35.7317 -35.7031 -35.7020 -35.6952 -16.7706 -16.7686 -16.7610 -16.7550
   -16.7220 -16.7024 -16.6277 -16.6095 -16.5706 -16.5696 -16.5624 -16.5582
    10.8331  11.6113  12.8386  12.9358  13.3059  13.3285  13.4251  13.4918
    13.7412  13.8004  13.9629  13.9980  14.2842  14.3243  14.3667  14.4901
    14.5109  14.6599  14.7796  14.8637  14.8698  15.0570  15.1438  15.1618
    15.2315  15.2408  15.3874  15.4920  15.6327  15.6858  15.8223  15.8607
    16.0180  16.1692  16.1903  16.2591  16.3722  16.4596  16.5075  16.5382
    16.6952  16.8348  17.0141  17.1406  17.1997  17.2272  17.3019  17.3549
    17.3948  17.5907  17.5984  17.8056  17.9058  18.0481  18.1397  18.3516
    18.4735  18.5990

          k = 0.0000 0.3849-0.3091 (  2978 PWs)   bands (ev):

   -70.9449 -70.9449 -70.9100 -70.9100 -70.8825 -70.8825 -70.8790 -70.8790
   -40.4236 -40.4236 -40.3903 -40.3903 -36.2408 -36.2408 -36.1022 -36.1022
   -36.0392 -36.0392 -36.0320 -36.0320 -36.0091 -36.0091 -35.9741 -35.9741
   -35.8679 -35.8679 -35.8538 -35.8538 -35.8176 -35.8176 -35.8168 -35.8168
   -35.7163 -35.7163 -35.6987 -35.6987 -16.7649 -16.7649 -16.7629 -16.7629
   -16.7129 -16.7129 -16.6179 -16.6179 -16.5660 -16.5660 -16.5642 -16.5642
    11.1700  11.1700  12.8719  12.8719  13.3458  13.3458  13.4829  13.4829
    13.8628  13.8628  13.8709  13.8709  14.3269  14.3269  14.3766  14.3766
    14.5810  14.5810  14.8083  14.8083  15.0211  15.0211  15.1938  15.1938
    15.1955  15.1955  15.4678  15.4678  15.6853  15.6853  15.9734  15.9734
    16.1136  16.1136  16.2386  16.2386  16.3226  16.3226  16.3867  16.3867
    16.7633  16.7633  17.1311  17.1311  17.1686  17.1686  17.3060  17.3060
    17.4826  17.4826  17.6799  17.6799  18.0435  18.0435  18.2518  18.2518
    18.4856  18.4856

          k = 0.0000-0.5774 0.0000 (  2998 PWs)   bands (ev):

   -70.9551 -70.9254 -70.9205 -70.9129 -70.8971 -70.8823 -70.8822 -70.8738
   -40.4232 -40.4082 -40.4064 -40.3908 -36.2090 -36.1761 -36.1639 -36.1187
   -36.0932 -36.0503 -35.9996 -35.9919 -35.9757 -35.9669 -35.9426 -35.9422
   -35.9309 -35.9279 -35.9140 -35.8990 -35.8972 -35.8716 -35.8096 -35.7827
   -35.7474 -35.7247 -35.7178 -35.6885 -16.7787 -16.7760 -16.7604 -16.7528
   -16.7232 -16.6765 -16.6537 -16.6085 -16.5722 -16.5699 -16.5553 -16.5514
    11.4475  12.0094  12.9631  12.9778  13.0717  13.3110  13.5144  13.6658
    13.7391  13.8401  14.1479  14.1782  14.1828  14.5175  14.5486  14.5673
    14.5735  14.6303  14.9152  15.0344  15.0808  15.0882  15.0942  15.1138
    15.1778  15.1857  15.2024  15.2134  15.2232  15.2556  15.2792  15.2823
    15.2849  15.7487  16.2517  16.4809  16.5412  16.5885  16.5931  16.6457
    16.6903  16.7801  16.8730  17.0254  17.1277  17.2489  17.5326  17.5904
    17.5961  17.6009  17.6326  17.8838  17.9582  18.0655  18.0771  18.1680
    18.3324  18.6290

          k = 0.0000-0.5774 0.1030 (  2988 PWs)   bands (ev):

   -70.9525 -70.9278 -70.9117 -70.9112 -70.8949 -70.8843 -70.8807 -70.8766
   -40.4226 -40.4116 -40.4028 -40.3913 -36.2185 -36.1937 -36.1394 -36.0997
   -36.0862 -36.0528 -36.0101 -35.9937 -35.9719 -35.9609 -35.9425 -35.9360
   -35.9292 -35.9187 -35.9049 -35.9014 -35.8920 -35.8609 -35.8003 -35.7900
   -35.7344 -35.7087 -35.6993 -35.6898 -16.7766 -16.7751 -16.7615 -16.7534
   -16.7228 -16.6848 -16.6457 -16.6095 -16.5712 -16.5689 -16.5562 -16.5529
    11.5170  12.0547  12.7570  12.9062  13.1243  13.4476  13.4677  13.6580
    13.7747  13.8023  14.1138  14.1777  14.2554  14.5452  14.5507  14.5534
    14.5794  14.6716  14.8177  14.9225  14.9229  15.0675  15.0720  15.1091
    15.1306  15.1741  15.2103  15.2431  15.2626  15.2870  15.3408  15.4308
    15.4938  15.8216  16.2565  16.4295  16.5596  16.5628  16.5665  16.6043
    16.6325  16.6732  17.0156  17.0849  17.1593  17.2293  17.3324  17.4750
    17.6038  17.6830  17.7275  17.7742  17.8796  18.0529  18.2626  18.2850
    18.3240  18.6304

          k = 0.0000-0.5774 0.2061 (  2996 PWs)   bands (ev):

   -70.9494 -70.9372 -70.9121 -70.9101 -70.8917 -70.8841 -70.8825 -70.8795
   -40.4212 -40.4155 -40.3988 -40.3929 -36.2211 -36.2099 -36.1130 -36.0842
   -36.0831 -36.0586 -36.0251 -35.9937 -35.9885 -35.9719 -35.9397 -35.9365
   -35.9311 -35.9264 -35.9097 -35.9006 -35.8676 -35.8573 -35.8236 -35.8082
   -35.7395 -35.7127 -35.7035 -35.6975 -16.7723 -16.7710 -16.7645 -16.7568
   -16.7193 -16.6984 -16.6330 -16.6136 -16.5679 -16.5661 -16.5588 -16.5570
    11.6834  12.1043  12.4903  12.7357  13.1808  13.3688  13.5969  13.6387
    13.8232  13.8782  14.0121  14.1367  14.3736  14.4990  14.5260  14.5263
    14.6063  14.6484  14.7218  14.8371  14.9367  14.9930  15.0514  15.1066
    15.1510  15.1521  15.2106  15.2464  15.2681  15.2930  15.4244  15.5311
    15.8376  16.0474  16.2817  16.3358  16.4116  16.4757  16.4855  16.4909
    16.6451  16.6612  17.1324  17.1364  17.1540  17.2179  17.2485  17.3629
    17.4426  17.5970  17.7722  17.7745  18.0057  18.0815  18.2599  18.4298
    18.4887  18.5770

          k = 0.0000-0.5774-0.3091 (  2968 PWs)   bands (ev):

   -70.9412 -70.9412 -70.9066 -70.9066 -70.8842 -70.8842 -70.8791 -70.8791
   -40.4187 -40.4187 -40.3953 -40.3953 -36.2097 -36.2097 -36.0820 -36.0820
   -36.0284 -36.0284 -36.0230 -36.0230 -35.9686 -35.9686 -35.9271 -35.9271
   -35.9270 -35.9270 -35.8943 -35.8943 -35.8395 -35.8395 -35.8138 -35.8138
   -35.7170 -35.7170 -35.6895 -35.6895 -16.7685 -16.7685 -16.7635 -16.7635
   -16.7107 -16.7107 -16.6216 -16.6216 -16.5626 -16.5626 -16.5624 -16.5624
    11.9456  11.9456  12.5368  12.5368  13.2640  13.2640  13.6624  13.6624
    13.8989  13.8989  14.0240  14.0240  14.4709  14.4709  14.5228  14.5228
    14.5350  14.5350  14.8193  14.8193  14.9549  14.9549  15.1177  15.1177
    15.1244  15.1244  15.2126  15.2126  15.2948  15.2948  15.5171  15.5171
    16.1766  16.1766  16.2981  16.2981  16.3213  16.3213  16.3925  16.3925
    16.6627  16.6627  17.1114  17.1114  17.2560  17.2560  17.2829  17.2829
    17.4171  17.4171  17.8116  17.8116  18.1424  18.1424  18.2554  18.2554
    18.5666  18.5666

          k = 0.1667 0.2887 0.0000 (  2994 PWs)   bands (ev):

   -70.9571 -70.9293 -70.9248 -70.9055 -70.8913 -70.8825 -70.8792 -70.8772
   -40.4313 -40.4165 -40.3979 -40.3822 -36.2754 -36.1991 -36.1597 -36.0934
   -36.0901 -36.0628 -36.0536 -36.0406 -36.0151 -35.9624 -35.9582 -35.9564
   -35.9077 -35.9045 -35.8903 -35.8448 -35.8360 -35.8020 -35.7877 -35.7708
   -35.7335 -35.7326 -35.7229 -35.6943 -16.7753 -16.7728 -16.7573 -16.7440
   -16.7305 -16.6935 -16.6352 -16.6011 -16.5798 -16.5738 -16.5590 -16.5549
    10.2821  12.2095  12.8926  12.9013  13.1602  13.1877  13.2514  13.4835
    13.5234  13.7135  14.0543  14.0832  14.1451  14.2486  14.2871  14.4984
    14.5145  14.7408  14.8465  14.9165  14.9732  15.0375  15.0964  15.1806
    15.1927  15.2176  15.2814  15.5396  15.5928  15.6043  15.7375  16.0316
    16.0753  16.1673  16.2996  16.3356  16.4012  16.5932  16.7589  16.7722
    16.7799  16.9480  17.0314  17.0794  17.1319  17.2663  17.3943  17.4281
    17.5230  17.5854  17.7061  17.7809  17.7991  17.8853  18.2485  18.3169
    18.3319  18.4505

          k = 0.1667 0.2887 0.1030 (  2988 PWs)   bands (ev):

   -70.9554 -70.9340 -70.9200 -70.9064 -70.8890 -70.8806 -70.8788 -70.8765
   -40.4306 -40.4182 -40.3961 -40.3830 -36.2687 -36.2170 -36.1448 -36.0892
   -36.0881 -36.0523 -36.0503 -36.0297 -36.0050 -35.9779 -35.9696 -35.9647
   -35.8946 -35.8852 -35.8782 -35.8390 -35.8250 -35.8019 -35.7960 -35.7756
   -35.7335 -35.7235 -35.7217 -35.6942 -16.7734 -16.7718 -16.7584 -16.7467
   -16.7280 -16.6966 -16.6322 -16.6033 -16.5777 -16.5727 -16.5599 -16.5563
    10.3583  11.8976  12.8991  13.0169  13.1307  13.2517  13.2581  13.5114
    13.6054  13.7082  14.0226  14.0574  14.1567  14.2338  14.3084  14.5009
    14.5131  14.6818  14.7504  14.8816  14.9902  15.0601  15.1213  15.2207
    15.2279  15.3030  15.4022  15.5695  15.6186  15.6608  15.7341  16.0250
    16.0636  16.1536  16.2859  16.3024  16.3549  16.5873  16.6588  16.7476
    16.7787  16.8818  16.9598  17.1082  17.2032  17.3028  17.3274  17.4222
    17.5176  17.6375  17.6793  17.8295  17.8600  17.8974  18.1390  18.2964
    18.3747  18.4518

          k = 0.1667 0.2887 0.2061 (  2986 PWs)   bands (ev):

   -70.9526 -70.9399 -70.9141 -70.9080 -70.8879 -70.8803 -70.8785 -70.8781
   -40.4287 -40.4218 -40.3923 -40.3851 -36.2635 -36.2367 -36.1089 -36.0918
   -36.0725 -36.0481 -36.0432 -36.0411 -36.0033 -35.9991 -35.9876 -35.9817
   -35.8728 -35.8644 -35.8608 -35.8338 -35.8202 -35.8156 -35.8033 -35.7801
   -35.7250 -35.7234 -35.7203 -35.7094 -16.7691 -16.7683 -16.7613 -16.7530
   -16.7218 -16.7042 -16.6251 -16.6089 -16.5727 -16.5700 -16.5624 -16.5604
    10.5822  11.4017  12.8970  12.9574  13.2425  13.2650  13.3926  13.5559
    13.7166  13.7377  13.9273  13.9662  14.2119  14.2254  14.2965  14.4450
    14.5441  14.6100  14.7172  14.7846  15.0071  15.1802  15.2021  15.2692
    15.3141  15.3644  15.5843  15.6149  15.6647  15.7340  15.8392  16.0059
    16.0853  16.1042  16.1772  16.2947  16.2971  16.5033  16.5227  16.5365
    16.8037  16.8321  17.0205  17.1430  17.1465  17.2412  17.2832  17.3616
    17.5552  17.7145  17.7387  17.8330  17.9061  17.9793  18.0814  18.2277
    18.3006  18.4536

          k = 0.1667 0.2887-0.3091 (  2990 PWs)   bands (ev):

   -70.9479 -70.9479 -70.9094 -70.9094 -70.8846 -70.8846 -70.8799 -70.8799
   -40.4256 -40.4256 -40.3883 -40.3883 -36.2607 -36.2607 -36.1014 -36.1014
   -36.0523 -36.0523 -36.0319 -36.0319 -36.0304 -36.0304 -35.9908 -35.9908
   -35.8645 -35.8645 -35.8374 -35.8374 -35.8239 -35.8239 -35.7948 -35.7948
   -35.7199 -35.7199 -35.7156 -35.7156 -16.7654 -16.7654 -16.7608 -16.7608
   -16.7134 -16.7134 -16.6167 -16.6167 -16.5671 -16.5671 -16.5653 -16.5653
    10.9361  10.9361  12.9067  12.9067  13.2801  13.2801  13.5066  13.5066
    13.7921  13.7921  13.8679  13.8679  14.2414  14.2414  14.3152  14.3152
    14.5922  14.5922  14.7306  14.7306  15.1116  15.1116  15.2851  15.2851
    15.3960  15.3960  15.5913  15.5913  15.7480  15.7480  16.0013  16.0013
    16.0564  16.0564  16.2463  16.2463  16.3062  16.3062  16.4425  16.4425
    16.8496  16.8496  17.0639  17.0639  17.1654  17.1654  17.2885  17.2885
    17.6676  17.6676  17.7779  17.7779  17.9956  17.9956  18.1305  18.1305
    18.3297  18.3297

          k = 0.1667 0.4811 0.0000 (  2989 PWs)   bands (ev):

   -70.9530 -70.9251 -70.9187 -70.9115 -70.8974 -70.8801 -70.8793 -70.8769
   -40.4233 -40.4080 -40.4064 -40.3908 -36.2153 -36.1624 -36.1429 -36.0953
   -36.0765 -36.0635 -36.0391 -36.0078 -35.9624 -35.9619 -35.9338 -35.9299
   -35.9237 -35.9167 -35.9163 -35.9044 -35.8589 -35.8395 -35.8027 -35.7914
   -35.7486 -35.7338 -35.7296 -35.6926 -16.7826 -16.7731 -16.7650 -16.7538
   -16.7144 -16.6700 -16.6594 -16.6164 -16.5712 -16.5666 -16.5558 -16.5504
    11.2462  12.4882  12.9197  13.1460  13.1581  13.2509  13.3423  13.4385
    13.6518  13.7915  14.1986  14.2499  14.3729  14.4547  14.4553  14.4967
    14.5453  14.6599  14.7840  14.9321  14.9432  14.9584  14.9876  15.1031
    15.1435  15.1835  15.1843  15.2085  15.2462  15.3522  15.4722  15.6046
    15.6395  15.7587  16.1984  16.2221  16.4329  16.5207  16.6191  16.7266
    16.8029  16.9280  16.9971  17.1099  17.1132  17.3161  17.4313  17.4432
    17.6034  17.6984  17.7086  17.7813  17.8633  18.0136  18.1684  18.3602
    18.4502  18.5707

          k = 0.1667 0.4811 0.1030 (  2990 PWs)   bands (ev):

   -70.9516 -70.9305 -70.9156 -70.9118 -70.8963 -70.8808 -70.8792 -70.8766
   -40.4227 -40.4115 -40.4028 -40.3913 -36.2119 -36.1747 -36.1242 -36.0984
   -36.0762 -36.0600 -36.0364 -36.0118 -35.9687 -35.9618 -35.9486 -35.9415
   -35.9249 -35.9188 -35.8947 -35.8903 -35.8601 -35.8417 -35.8102 -35.7962
   -35.7500 -35.7307 -35.7276 -35.6939 -16.7814 -16.7713 -16.7662 -16.7538
   -16.7147 -16.6810 -16.6487 -16.6167 -16.5708 -16.5654 -16.5571 -16.5515
    11.3110  12.4416  12.7464  13.0541  13.2142  13.3230  13.3938  13.4379
    13.7101  13.7943  14.1369  14.2867  14.3983  14.4481  14.4849  14.5040
    14.5530  14.6289  14.7191  14.8127  14.9128  14.9461  14.9905  15.0414
    15.1306  15.1781  15.2275  15.2677  15.3034  15.4711  15.5431  15.5882
    15.6927  15.7916  16.1927  16.2279  16.3842  16.4999  16.5993  16.7080
    16.7736  16.8035  17.0511  17.0982  17.1723  17.2911  17.3951  17.4675
    17.6114  17.6322  17.6815  17.7675  17.8795  18.0043  18.1323  18.4502
    18.4559  18.5477

          k = 0.1667 0.4811 0.2061 (  2986 PWs)   bands (ev):

   -70.9467 -70.9381 -70.9137 -70.9112 -70.8901 -70.8820 -70.8787 -70.8766
   -40.4212 -40.4154 -40.3988 -40.3928 -36.2063 -36.1844 -36.1036 -36.0961
   -36.0622 -36.0573 -36.0303 -36.0199 -35.9960 -35.9795 -35.9492 -35.9418
   -35.9198 -35.9151 -35.8720 -35.8717 -35.8424 -35.8351 -35.8145 -35.8081
   -35.7410 -35.7306 -35.7299 -35.6948 -16.7782 -16.7695 -16.7664 -16.7553
   -16.7132 -16.6950 -16.6357 -16.6190 -16.5690 -16.5625 -16.5604 -16.5544
    11.5066  12.1544  12.7115  12.9519  13.2588  13.3014  13.4273  13.4924
    13.8355  13.8776  14.0408  14.2027  14.4312  14.4576  14.4794  14.5197
    14.5437  14.6446  14.6745  14.7772  14.8574  14.8926  14.9491  15.0130
    15.1309  15.1978  15.2496  15.2866  15.3747  15.4624  15.6449  15.7255
    15.8486  15.9651  16.1575  16.2322  16.2772  16.4099  16.5422  16.5991
    16.7013  16.7325  17.0872  17.1036  17.1579  17.2868  17.3511  17.4834
    17.5563  17.5991  17.7078  17.7793  17.8202  17.9914  18.1933  18.3494
    18.4987  18.6475

          k = 0.1667 0.4811-0.3091 (  2994 PWs)   bands (ev):

   -70.9437 -70.9437 -70.9128 -70.9128 -70.8869 -70.8869 -70.8783 -70.8783
   -40.4187 -40.4187 -40.3955 -40.3955 -36.1969 -36.1969 -36.0959 -36.0959
   -36.0498 -36.0498 -36.0301 -36.0301 -36.0056 -36.0056 -35.9492 -35.9492
   -35.9187 -35.9187 -35.8688 -35.8688 -35.8379 -35.8379 -35.8262 -35.8262
   -35.7342 -35.7342 -35.7215 -35.7215 -16.7739 -16.7739 -16.7601 -16.7601
   -16.7065 -16.7065 -16.6253 -16.6253 -16.5652 -16.5652 -16.5583 -16.5583
    11.7991  11.7991  12.8174  12.8174  13.2884  13.2884  13.4704  13.4704
    13.9290  13.9290  14.0483  14.0483  14.4353  14.4353  14.4778  14.4778
    14.6159  14.6159  14.7458  14.7458  14.8655  14.8655  14.9528  14.9528
    15.1764  15.1764  15.2695  15.2695  15.4053  15.4053  15.7438  15.7438
    16.0657  16.0657  16.1619  16.1619  16.2761  16.2761  16.4783  16.4783
    16.7080  16.7080  17.1048  17.1048  17.1989  17.1989  17.4040  17.4040
    17.5804  17.5804  17.7377  17.7377  17.9190  17.9190  18.2671  18.2671
    18.5426  18.5426

          k = 0.3333 0.5774 0.0000 (  3006 PWs)   bands (ev):

   -70.9514 -70.9259 -70.9165 -70.9165 -70.9066 -70.8842 -70.8787 -70.8787
   -40.4149 -40.4149 -40.3995 -40.3995 -36.1837 -36.1810 -36.1019 -36.1019
   -36.0866 -36.0866 -36.0373 -36.0213 -36.0213 -35.9671 -35.9671 -35.9301
   -35.9195 -35.9195 -35.9122 -35.8718 -35.8718 -35.8674 -35.7997 -35.7997
   -35.7735 -35.7735 -35.7462 -35.6860 -16.7881 -16.7702 -16.7641 -16.7641
   -16.6872 -16.6872 -16.6423 -16.6423 -16.5624 -16.5624 -16.5621 -16.5465
    11.9359  12.5607  12.5607  13.2604  13.3018  13.3018  13.4494  13.4494
    13.4548  13.6838  14.3914  14.3914  14.4123  14.4123  14.5757  14.5757
    14.6070  14.6206  14.6875  14.6875  14.6988  14.8490  14.9614  14.9614
    14.9933  15.0952  15.0952  15.2870  15.2870  15.5317  15.5317  15.5319
    15.6146  15.7925  16.1703  16.1703  16.3899  16.3899  16.4786  16.4905
    16.9780  16.9780  17.0495  17.0495  17.3934  17.3934  17.4281  17.4281
    17.5287  17.5782  17.7468  17.9340  17.9340  17.9670  18.2930  18.2930
    18.3444  18.4021

          k = 0.3333 0.5774 0.1030 (  2991 PWs)   bands (ev):

   -70.9482 -70.9305 -70.9151 -70.9151 -70.8989 -70.8823 -70.8771 -70.8771
   -40.4149 -40.4149 -40.3994 -40.3994 -36.1646 -36.1566 -36.0907 -36.0907
   -36.0787 -36.0787 -36.0355 -36.0214 -36.0214 -35.9729 -35.9729 -35.9280
   -35.8990 -35.8990 -35.8978 -35.8706 -35.8661 -35.8661 -35.8027 -35.8027
   -35.7672 -35.7672 -35.7441 -35.6781 -16.7870 -16.7715 -16.7628 -16.7628
   -16.6911 -16.6911 -16.6390 -16.6390 -16.5632 -16.5632 -16.5610 -16.5475
    11.9801  12.5935  12.5935  12.9880  13.2523  13.2523  13.4596  13.4596
    13.7180  13.7227  14.3699  14.3699  14.4374  14.4933  14.4933  14.5727
    14.5727  14.5831  14.6643  14.6643  14.7766  14.8131  14.8575  14.8575
    15.0381  15.0449  15.0449  15.4134  15.4134  15.5033  15.5674  15.5674
    15.6860  15.8543  16.1261  16.1261  16.4370  16.4491  16.4491  16.4529
    16.8843  16.8843  17.0753  17.0753  17.3274  17.3274  17.4931  17.4931
    17.5112  17.6053  17.6734  17.8998  17.8998  17.9674  18.2964  18.2964
    18.4011  18.4011

          k = 0.3333 0.5774 0.2061 (  3000 PWs)   bands (ev):

   -70.9470 -70.9394 -70.9162 -70.9162 -70.8940 -70.8822 -70.8773 -70.8773
   -40.4151 -40.4151 -40.3992 -40.3992 -36.1621 -36.1531 -36.0915 -36.0915
   -36.0813 -36.0813 -36.0301 -36.0301 -36.0207 -35.9916 -35.9916 -35.9678
   -35.8826 -35.8789 -35.8736 -35.8736 -35.8628 -35.8628 -35.8153 -35.8153
   -35.7679 -35.7679 -35.7440 -35.7059 -16.7839 -16.7749 -16.7598 -16.7598
   -16.6981 -16.6981 -16.6333 -16.6333 -16.5649 -16.5649 -16.5580 -16.5502
    12.1197  12.6572  12.6857  12.6857  13.1380  13.1380  13.4671  13.4671
    13.8192  14.0324  14.2001  14.3765  14.3765  14.4954  14.5368  14.5368
    14.5728  14.5728  14.6594  14.6594  14.7417  14.7512  14.7626  14.7626
    14.9862  14.9862  15.1698  15.4072  15.4072  15.4244  15.7680  15.7680
    15.8515  15.9872  16.0582  16.0582  16.3094  16.3519  16.5373  16.5373
    16.7076  16.7076  17.0967  17.0967  17.2808  17.2808  17.4836  17.5360
    17.5531  17.5531  17.7227  17.8120  17.8120  17.9251  18.3241  18.3241
    18.3680  18.3680

          k = 0.3333 0.5774-0.3091 (  2976 PWs)   bands (ev):

   -70.9381 -70.9381 -70.9113 -70.9113 -70.8856 -70.8856 -70.8790 -70.8790
   -40.4150 -40.4150 -40.3991 -40.3991 -36.1591 -36.1591 -36.0857 -36.0857
   -36.0562 -36.0562 -36.0241 -36.0241 -35.9899 -35.9899 -35.9843 -35.9843
   -35.8615 -35.8615 -35.8565 -35.8565 -35.8515 -35.8515 -35.8267 -35.8267
   -35.7484 -35.7484 -35.7098 -35.7098 -16.7795 -16.7795 -16.7582 -16.7582
   -16.7015 -16.7015 -16.6307 -16.6307 -16.5658 -16.5658 -16.5540 -16.5540
    12.3802  12.3802  12.7705  12.7705  13.0699  13.0699  13.4695  13.4695
    13.9852  13.9852  14.3084  14.3084  14.3824  14.3824  14.5321  14.5321
    14.5332  14.5332  14.7192  14.7192  14.7339  14.7339  14.7473  14.7473
    14.9503  14.9503  15.3077  15.3077  15.3729  15.3729  15.9176  15.9176
    16.0017  16.0017  16.0345  16.0345  16.2320  16.2320  16.5843  16.5843
    16.6020  16.6020  17.1056  17.1056  17.2691  17.2691  17.4843  17.4843
    17.5892  17.5892  17.7530  17.7530  17.8349  17.8349  18.3435  18.3435
    18.3483  18.3483

     the Fermi energy is    16.6852 ev

!    total energy              =   -3109.91628494 Ry
     estimated scf accuracy    <          1.6E-09 Ry
     smearing contrib. (-TS)   =       0.00001805 Ry
     internal energy E=F+TS    =   -3109.91630299 Ry

     The total energy is F=E-TS. E is the sum of the following terms:
     one-electron contribution =   -1210.02890811 Ry
     hartree contribution      =     702.27918484 Ry
     xc contribution           =    -350.95477430 Ry
     ewald contribution        =   -1642.60130587 Ry
     one-center paw contrib.   =    -608.61049955 Ry

     convergence has been achieved in  32 iterations

     negative rho (up, down):  4.905E-03 0.000E+00

     Forces acting on atoms (cartesian axes, Ry/au):

     atom    1 type  1   force =    -0.09060005    0.05230797   -0.00000000
     atom    2 type  1   force =     0.09060005   -0.05230797   -0.00000000
     atom    3 type  1   force =    -0.00000000    0.10461593   -0.00000000
     atom    4 type  1   force =     0.09060005    0.05230797   -0.00000000
     atom    5 type  1   force =     0.00000000   -0.10461593   -0.00000000
     atom    6 type  1   force =    -0.09060005   -0.05230797    0.00000000
     atom    7 type  1   force =     0.00000000    0.00000000    0.00000000
     atom    8 type  1   force =    -0.00000000   -0.00000000    0.00000000
     atom    9 type  2   force =     0.00000000    0.00000000   -0.00762943
     atom   10 type  2   force =     0.00000000   -0.00000000   -0.00762943
     atom   11 type  2   force =     0.00000000    0.00000000    0.00762943
     atom   12 type  2   force =     0.00000000    0.00000000    0.00762943

     Total force =     0.256710     Total SCF correction =     0.000091


     Computing stress (Cartesian axis) and pressure


     negative rho (up, down):  4.905E-03 0.000E+00
          total   stress  (Ry/bohr**3)                   (kbar)     P=      125.55
   0.00080325  -0.00000000   0.00000000          118.16       -0.00        0.00
   0.00000000   0.00080325   0.00000000            0.00      118.16        0.00
   0.00000000   0.00000000   0.00095381            0.00        0.00      140.31


     Writing all to output data dir ./FeAl.save/ :
     XML data file, charge density, pseudopotentials, collected wavefunctions

     init_run     :      1.60s CPU      1.64s WALL (       1 calls)
     electrons    :     88.50s CPU     90.12s WALL (       1 calls)
     forces       :      0.21s CPU      0.22s WALL (       1 calls)
     stress       :      0.73s CPU      0.73s WALL (       1 calls)

     Called by init_run:
     wfcinit      :      0.90s CPU      0.92s WALL (       1 calls)
     potinit      :      0.36s CPU      0.37s WALL (       1 calls)
     hinit0       :      0.32s CPU      0.32s WALL (       1 calls)

     Called by electrons:
     c_bands      :     76.76s CPU     77.80s WALL (      32 calls)
     sum_band     :      5.67s CPU      5.83s WALL (      32 calls)
     v_of_rho     :      0.07s CPU      0.07s WALL (      33 calls)
     newd         :      0.34s CPU      0.39s WALL (      33 calls)
     PAW_pot      :      5.80s CPU      6.13s WALL (      33 calls)
     mix_rho      :      0.03s CPU      0.03s WALL (      32 calls)

     Called by c_bands:
     init_us_2    :      0.27s CPU      0.28s WALL (    1876 calls)
     cegterg      :     75.26s CPU     76.26s WALL (     896 calls)

     Called by *egterg:
     cdiaghg      :     39.47s CPU     39.61s WALL (    3323 calls)
     h_psi        :     22.49s CPU     23.28s WALL (    3351 calls)
     s_psi        :      1.95s CPU      1.97s WALL (    3351 calls)
     g_psi        :      0.08s CPU      0.08s WALL (    2427 calls)

     Called by h_psi:
     h_psi:calbec :      4.05s CPU      4.13s WALL (    3351 calls)
     vloc_psi     :     16.31s CPU     17.01s WALL (    3351 calls)
     add_vuspsi   :      2.03s CPU      2.05s WALL (    3351 calls)

     General routines
     calbec       :      6.21s CPU      6.31s WALL (    4723 calls)
     fft          :      0.33s CPU      0.34s WALL (     452 calls)
     ffts         :      0.18s CPU      0.18s WALL (      65 calls)
     fftw         :     17.35s CPU     18.08s WALL (  544812 calls)
     interpolate  :      0.18s CPU      0.19s WALL (      33 calls)

     Parallel routines

     PWSCF        :     91.55s CPU     95.43s WALL


   This run was terminated on:  14:36:49  27Oct2025            

=------------------------------------------------------------------------------=
   JOB DONE.
=------------------------------------------------------------------------------=
Note: The following floating-point exceptions are signalling: IEEE_UNDERFLOW_FLAG IEEE_DENORMAL
Note: The following floating-point exceptions are signalling: IEEE_UNDERFLOW_FLAG IEEE_DENORMAL
Note: The following floating-point exceptions are signalling: IEEE_UNDERFLOW_FLAG IEEE_DENORMAL
Note: The following floating-point exceptions are signalling: IEEE_UNDERFLOW_FLAG IEEE_DENORMAL
Note: The following floating-point exceptions are signalling: IEEE_UNDERFLOW_FLAG IEEE_DENORMAL
Note: The following floating-point exceptions are signalling: IEEE_UNDERFLOW_FLAG IEEE_DENORMAL
Note: The following floating-point exceptions are signalling: IEEE_UNDERFLOW_FLAG IEEE_DENORMAL
Note: The following floating-point exceptions are signalling: IEEE_UNDERFLOW_FLAG IEEE_DENORMAL
Note: The following floating-point exceptions are signalling: IEEE_UNDERFLOW_FLAG IEEE_DENORMAL
Note: The following floating-point exceptions are signalling: IEEE_UNDERFLOW_FLAG IEEE_DENORMAL
Note: The following floating-point exceptions are signalling: IEEE_UNDERFLOW_FLAG IEEE_DENORMAL
Note: The following floating-point exceptions are signalling: IEEE_UNDERFLOW_FLAG IEEE_DENORMAL
Note: The following floating-point exceptions are signalling: IEEE_UNDERFLOW_FLAG IEEE_DENORMAL
Note: The following floating-point exceptions are signalling: IEEE_UNDERFLOW_FLAG IEEE_DENORMAL
Note: The following floating-point exceptions are signalling: IEEE_UNDERFLOW_FLAG IEEE_DENORMAL
Note: The following floating-point exceptions are signalling: IEEE_UNDERFLOW_FLAG IEEE_DENORMAL
