
     Program PWSCF v.7.4 starts on 27Oct2025 at 14:41: 1 

     This program is part of the open-source Quantum ESPRESSO suite
     for quantum simulation of materials; please cite
         "P. Giannozzi et al., J. Phys.:Condens. Matter 21 395502 (2009);
         "P. Giannozzi et al., J. Phys.:Condens. Matter 29 465901 (2017);
         "P. Giannozzi et al., J. Chem. Phys. 152 154105 (2020);
          URL http://www.quantum-espresso.org", 
     in publications or presentations arising from this work. More details at
     http://www.quantum-espresso.org/quote

     Parallel version (MPI & OpenMP), running on      16 processor cores
     Number of MPI processes:                16
     Threads/MPI process:                     1

     MPI processes distributed on     1 nodes
     227913 MiB available memory on the printing compute node when the environment starts

     Reading input from TiFe2_ecutwfc_convergence/TiFe2_ecut60.in

     Current dimensions of program PWSCF are:
     Max number of different atomic species (ntypx) = 10
     Max number of k-points (npk) =  40000
     Max angular momentum in pseudopotentials (lmaxx) =  4
     file Fe.pbe-spn-kjpaw_psl.0.2.1.UPF: wavefunction(s)  3D renormalized

     IMPORTANT: XC functional enforced from input :
     Exchange-correlation= PBE
                           (   1   4   3   4   0   0   0)
     Any further DFT definition will be discarded
     Please, verify this is what you really want

     Message from routine setup:
     using ibrav=0 with symmetry is DISCOURAGED, use correct ibrav instead

     R & G space division:  proc/nbgrp/npool/nimage =      16
     Subspace diagonalization in iterative solution of the eigenvalue problem:
     a serial algorithm will be used


     Parallelization info
     --------------------
     sticks:   dense  smooth     PW     G-vecs:    dense   smooth      PW
     Min         108      87     24                 5896     4219     632
     Max         109      88     25                 5903     4224     638
     Sum        1735    1393    385                94383    67513   10179

     Using Slab Decomposition



     bravais-lattice index     =            0
     lattice parameter (alat)  =       9.1568  a.u.
     unit-cell volume          =    1075.5644 (a.u.)^3
     number of atoms/cell      =           12
     number of atomic types    =            2
     number of electrons       =       176.00
     number of Kohn-Sham states=          106
     kinetic-energy cutoff     =      60.0000  Ry
     charge density cutoff     =     300.0000  Ry
     scf convergence threshold =      1.0E-08
     mixing beta               =       0.7000
     number of iterations used =            8  plain     mixing
     Exchange-correlation= PBE
                           (   1   4   3   4   0   0   0)

     celldm(1)=   9.156781  celldm(2)=   0.000000  celldm(3)=   0.000000
     celldm(4)=   0.000000  celldm(5)=   0.000000  celldm(6)=   0.000000

     crystal axes: (cart. coord. in units of alat)
               a(1) = (   1.000000   0.000000   0.000000 )  
               a(2) = (  -0.500000   0.866025   0.000000 )  
               a(3) = (   0.000000   0.000000   1.617623 )  

     reciprocal axes: (cart. coord. in units 2 pi/alat)
               b(1) = (  1.000000  0.577350 -0.000000 )  
               b(2) = (  0.000000  1.154701  0.000000 )  
               b(3) = (  0.000000 -0.000000  0.618191 )  


     PseudoPot. # 1 for Fe read from file:
     ./Fe.pbe-spn-kjpaw_psl.0.2.1.UPF
     MD5 check sum: e86618425769142926afa95317d90200
     Pseudo is Projector augmented-wave + core cor, Zval = 16.0
     Generated using "atomic" code by A. Dal Corso  v.5.0.99 svn rev. 10869
     Shape of augmentation charge: PSQ
     Using radial grid of 1191 points,  6 beta functions with: 
                l(1) =   0
                l(2) =   0
                l(3) =   1
                l(4) =   1
                l(5) =   2
                l(6) =   2
     Q(r) pseudized with 0 coefficients 


     PseudoPot. # 2 for Ti read from file:
     ./Ti_pbe_v1.4.uspp.F.UPF
     MD5 check sum: 88a00a6731bd790ddea75d31a80cb452
     Pseudo is Ultrasoft + core correction, Zval = 12.0
     Generated by new atomic code, or converted to UPF format
     Using radial grid of  851 points,  6 beta functions with: 
                l(1) =   0
                l(2) =   0
                l(3) =   1
                l(4) =   1
                l(5) =   2
                l(6) =   2
     Q(r) pseudized with  6 coefficients,  rinner =    1.000   1.000   1.000
                                                       1.000   1.000

     atomic species   valence    mass     pseudopotential
     Fe               16.00    55.84500     Fe( 1.00)
     Ti               12.00    47.86700     Ti( 1.00)

     24 Sym. Ops., with inversion, found (12 have fractional translation)



   Cartesian axes

     site n.     atom                  positions (alat units)
         1        Fe     tau(   1) = (   0.7465670   0.1463196   0.4044057  )
         2        Fe     tau(   2) = (  -0.2465670   0.7197058   1.2132171  )
         3        Fe     tau(   3) = (  -0.0000000   0.2926392   1.2132171  )
         4        Fe     tau(   4) = (   0.2534330   0.1463196   0.4044057  )
         5        Fe     tau(   5) = (   0.5000000   0.5733862   0.4044057  )
         6        Fe     tau(   6) = (   0.2465670   0.7197058   1.2132171  )
         7        Fe     tau(   7) = (   0.0000000   0.0000000   0.0000000  )
         8        Fe     tau(   8) = (   0.0000000   0.0000000   0.8088114  )
         9        Ti     tau(   9) = (   0.5000000   0.2886751   1.5200090  )
        10        Ti     tau(  10) = (  -0.0000000   0.5773503   0.7111976  )
        11        Ti     tau(  11) = (  -0.0000000   0.5773503   0.0976138  )
        12        Ti     tau(  12) = (   0.5000000   0.2886751   0.9064252  )

     number of k points=    28  Marzari-Vanderbilt smearing, width (Ry)=  0.0050
                       cart. coord. in units 2pi/alat
        k(    1) = (   0.0000000   0.0000000   0.0000000), wk =   0.0092593
        k(    2) = (   0.0000000   0.0000000   0.1030318), wk =   0.0185185
        k(    3) = (   0.0000000   0.0000000   0.2060637), wk =   0.0185185
        k(    4) = (   0.0000000   0.0000000  -0.3090955), wk =   0.0092593
        k(    5) = (   0.0000000   0.1924501   0.0000000), wk =   0.0555556
        k(    6) = (   0.0000000   0.1924501   0.1030318), wk =   0.1111111
        k(    7) = (   0.0000000   0.1924501   0.2060637), wk =   0.1111111
        k(    8) = (   0.0000000   0.1924501  -0.3090955), wk =   0.0555556
        k(    9) = (   0.0000000   0.3849002   0.0000000), wk =   0.0555556
        k(   10) = (   0.0000000   0.3849002   0.1030318), wk =   0.1111111
        k(   11) = (   0.0000000   0.3849002   0.2060637), wk =   0.1111111
        k(   12) = (   0.0000000   0.3849002  -0.3090955), wk =   0.0555556
        k(   13) = (   0.0000000  -0.5773503   0.0000000), wk =   0.0277778
        k(   14) = (   0.0000000  -0.5773503   0.1030318), wk =   0.0555556
        k(   15) = (   0.0000000  -0.5773503   0.2060637), wk =   0.0555556
        k(   16) = (   0.0000000  -0.5773503  -0.3090955), wk =   0.0277778
        k(   17) = (   0.1666667   0.2886751   0.0000000), wk =   0.0555556
        k(   18) = (   0.1666667   0.2886751   0.1030318), wk =   0.1111111
        k(   19) = (   0.1666667   0.2886751   0.2060637), wk =   0.1111111
        k(   20) = (   0.1666667   0.2886751  -0.3090955), wk =   0.0555556
        k(   21) = (   0.1666667   0.4811252   0.0000000), wk =   0.1111111
        k(   22) = (   0.1666667   0.4811252   0.1030318), wk =   0.2222222
        k(   23) = (   0.1666667   0.4811252   0.2060637), wk =   0.2222222
        k(   24) = (   0.1666667   0.4811252  -0.3090955), wk =   0.1111111
        k(   25) = (   0.3333333   0.5773503   0.0000000), wk =   0.0185185
        k(   26) = (   0.3333333   0.5773503   0.1030318), wk =   0.0370370
        k(   27) = (   0.3333333   0.5773503   0.2060637), wk =   0.0370370
        k(   28) = (   0.3333333   0.5773503  -0.3090955), wk =   0.0185185

     Dense  grid:    94383 G-vectors     FFT dimensions: (  54,  54,  90)

     Smooth grid:    67513 G-vectors     FFT dimensions: (  45,  45,  80)

     Estimated max dynamical RAM per process >      51.85 MB

     Estimated total dynamical RAM >     829.66 MB

     Check: negative core charge=   -0.000279

     Initial potential from superposition of free atoms

     starting charge     171.9963, renormalised to     176.0000

     negative rho (up, down):  5.266E-03 0.000E+00
     Starting wfcs are  144 randomized atomic wfcs
     Checking if some PAW data can be deallocated... 

     total cpu time spent up to now is        3.0 secs

     per-process dynamical memory:   147.2 Mb

     Self-consistent Calculation

     iteration #  1     ecut=    60.00 Ry     beta= 0.70
     Davidson diagonalization with overlap
     ethr =  1.00E-02,  avg # of iterations =  2.0

     negative rho (up, down):  6.757E-04 0.000E+00

     total cpu time spent up to now is        8.0 secs

     total energy              =   -3016.89563438 Ry
     estimated scf accuracy    <     116.66521372 Ry

     iteration #  2     ecut=    60.00 Ry     beta= 0.70
     Davidson diagonalization with overlap
     ethr =  1.00E-02,  avg # of iterations =  6.6

     total cpu time spent up to now is       18.9 secs

     total energy              =   -3075.95993536 Ry
     estimated scf accuracy    <     699.76669820 Ry

     iteration #  3     ecut=    60.00 Ry     beta= 0.70
     Davidson diagonalization with overlap
     ethr =  1.00E-02,  avg # of iterations =  5.0

     total cpu time spent up to now is       27.2 secs

     total energy              =   -3120.91688044 Ry
     estimated scf accuracy    <      91.86755699 Ry

     iteration #  4     ecut=    60.00 Ry     beta= 0.70
     Davidson diagonalization with overlap
     ethr =  1.00E-02,  avg # of iterations =  1.3

     total cpu time spent up to now is       31.3 secs

     total energy              =   -3116.47995630 Ry
     estimated scf accuracy    <      54.65966348 Ry

     iteration #  5     ecut=    60.00 Ry     beta= 0.70
     Davidson diagonalization with overlap
     ethr =  1.00E-02,  avg # of iterations =  1.7

     total cpu time spent up to now is       35.6 secs

     total energy              =   -3115.15292455 Ry
     estimated scf accuracy    <      41.88715165 Ry

     iteration #  6     ecut=    60.00 Ry     beta= 0.70
     Davidson diagonalization with overlap
     ethr =  1.00E-02,  avg # of iterations =  1.0

     negative rho (up, down):  4.655E-04 0.000E+00

     total cpu time spent up to now is       39.6 secs

     total energy              =   -3113.63622064 Ry
     estimated scf accuracy    <      26.13853849 Ry

     iteration #  7     ecut=    60.00 Ry     beta= 0.70
     Davidson diagonalization with overlap
     ethr =  1.00E-02,  avg # of iterations =  1.0

     negative rho (up, down):  2.160E-03 0.000E+00

     total cpu time spent up to now is       43.6 secs

     total energy              =   -3111.28056930 Ry
     estimated scf accuracy    <      18.45990291 Ry

     iteration #  8     ecut=    60.00 Ry     beta= 0.70
     Davidson diagonalization with overlap
     ethr =  1.00E-02,  avg # of iterations =  1.0

     negative rho (up, down):  2.542E-03 0.000E+00

     total cpu time spent up to now is       47.5 secs

     total energy              =   -3111.44374041 Ry
     estimated scf accuracy    <       6.13827754 Ry

     iteration #  9     ecut=    60.00 Ry     beta= 0.70
     Davidson diagonalization with overlap
     ethr =  3.49E-03,  avg # of iterations =  1.8

     negative rho (up, down):  3.217E-03 0.000E+00

     total cpu time spent up to now is       51.9 secs

     total energy              =   -3111.19170269 Ry
     estimated scf accuracy    <       4.42485284 Ry

     iteration # 10     ecut=    60.00 Ry     beta= 0.70
     Davidson diagonalization with overlap
     ethr =  2.51E-03,  avg # of iterations =  2.1

     negative rho (up, down):  4.823E-03 0.000E+00

     total cpu time spent up to now is       56.3 secs

     total energy              =   -3110.87915135 Ry
     estimated scf accuracy    <       1.50325926 Ry

     iteration # 11     ecut=    60.00 Ry     beta= 0.70
     Davidson diagonalization with overlap
     ethr =  8.54E-04,  avg # of iterations =  5.2

     negative rho (up, down):  4.179E-03 0.000E+00

     total cpu time spent up to now is       63.8 secs

     total energy              =   -3111.24283601 Ry
     estimated scf accuracy    <       6.86774130 Ry

     iteration # 12     ecut=    60.00 Ry     beta= 0.70
     Davidson diagonalization with overlap
     ethr =  8.54E-04,  avg # of iterations =  1.1

     negative rho (up, down):  3.006E-03 0.000E+00

     total cpu time spent up to now is       67.8 secs

     total energy              =   -3111.05336478 Ry
     estimated scf accuracy    <       1.43522042 Ry

     iteration # 13     ecut=    60.00 Ry     beta= 0.70
     Davidson diagonalization with overlap
     ethr =  8.15E-04,  avg # of iterations =  3.2

     negative rho (up, down):  3.532E-03 0.000E+00

     total cpu time spent up to now is       73.2 secs

     total energy              =   -3111.34403431 Ry
     estimated scf accuracy    <       1.53889868 Ry

     iteration # 14     ecut=    60.00 Ry     beta= 0.70
     Davidson diagonalization with overlap
     ethr =  8.15E-04,  avg # of iterations =  1.0

     negative rho (up, down):  3.818E-03 0.000E+00

     total cpu time spent up to now is       77.2 secs

     total energy              =   -3111.28492553 Ry
     estimated scf accuracy    <       0.83589906 Ry

     iteration # 15     ecut=    60.00 Ry     beta= 0.70
     Davidson diagonalization with overlap
     ethr =  4.75E-04,  avg # of iterations =  1.2

     negative rho (up, down):  3.854E-03 0.000E+00

     total cpu time spent up to now is       81.2 secs

     total energy              =   -3111.30298660 Ry
     estimated scf accuracy    <       0.10859737 Ry

     iteration # 16     ecut=    60.00 Ry     beta= 0.70
     Davidson diagonalization with overlap
     ethr =  6.17E-05,  avg # of iterations =  2.0

     negative rho (up, down):  3.878E-03 0.000E+00

     total cpu time spent up to now is       85.6 secs

     total energy              =   -3111.30367665 Ry
     estimated scf accuracy    <       0.06154865 Ry

     iteration # 17     ecut=    60.00 Ry     beta= 0.70
     Davidson diagonalization with overlap
     ethr =  3.50E-05,  avg # of iterations =  1.4

     negative rho (up, down):  3.949E-03 0.000E+00

     total cpu time spent up to now is       89.7 secs

     total energy              =   -3111.30005235 Ry
     estimated scf accuracy    <       0.05798984 Ry

     iteration # 18     ecut=    60.00 Ry     beta= 0.70
     Davidson diagonalization with overlap
     ethr =  3.29E-05,  avg # of iterations =  1.4

     negative rho (up, down):  4.009E-03 0.000E+00

     total cpu time spent up to now is       93.8 secs

     total energy              =   -3111.29965317 Ry
     estimated scf accuracy    <       0.01403341 Ry

     iteration # 19     ecut=    60.00 Ry     beta= 0.70
     Davidson diagonalization with overlap
     ethr =  7.97E-06,  avg # of iterations =  6.9

     negative rho (up, down):  4.005E-03 0.000E+00

     total cpu time spent up to now is      100.3 secs

     total energy              =   -3111.30108428 Ry
     estimated scf accuracy    <       0.00014177 Ry

     iteration # 20     ecut=    60.00 Ry     beta= 0.70
     Davidson diagonalization with overlap
     ethr =  8.06E-08,  avg # of iterations =  6.0

     negative rho (up, down):  4.006E-03 0.000E+00

     total cpu time spent up to now is      109.5 secs

     total energy              =   -3111.30127368 Ry
     estimated scf accuracy    <       0.00004613 Ry

     iteration # 21     ecut=    60.00 Ry     beta= 0.70
     Davidson diagonalization with overlap
     ethr =  2.62E-08,  avg # of iterations =  2.1

     negative rho (up, down):  4.009E-03 0.000E+00

     total cpu time spent up to now is      113.9 secs

     total energy              =   -3111.30127649 Ry
     estimated scf accuracy    <       0.00002104 Ry

     iteration # 22     ecut=    60.00 Ry     beta= 0.70
     Davidson diagonalization with overlap
     ethr =  1.20E-08,  avg # of iterations =  1.4

     negative rho (up, down):  4.011E-03 0.000E+00

     total cpu time spent up to now is      118.1 secs

     total energy              =   -3111.30127879 Ry
     estimated scf accuracy    <       0.00000564 Ry

     iteration # 23     ecut=    60.00 Ry     beta= 0.70
     Davidson diagonalization with overlap
     ethr =  3.20E-09,  avg # of iterations =  3.0

     negative rho (up, down):  4.009E-03 0.000E+00

     total cpu time spent up to now is      122.9 secs

     total energy              =   -3111.30127715 Ry
     estimated scf accuracy    <       0.00002447 Ry

     iteration # 24     ecut=    60.00 Ry     beta= 0.70
     Davidson diagonalization with overlap
     ethr =  3.20E-09,  avg # of iterations =  1.9

     negative rho (up, down):  4.009E-03 0.000E+00

     total cpu time spent up to now is      127.3 secs

     total energy              =   -3111.30127802 Ry
     estimated scf accuracy    <       0.00000078 Ry

     iteration # 25     ecut=    60.00 Ry     beta= 0.70
     Davidson diagonalization with overlap
     ethr =  4.46E-10,  avg # of iterations =  4.7

     negative rho (up, down):  4.009E-03 0.000E+00

     total cpu time spent up to now is      134.2 secs

     total energy              =   -3111.30127827 Ry
     estimated scf accuracy    <       0.00000034 Ry

     iteration # 26     ecut=    60.00 Ry     beta= 0.70
     Davidson diagonalization with overlap
     ethr =  1.96E-10,  avg # of iterations =  1.6

     negative rho (up, down):  4.009E-03 0.000E+00

     total cpu time spent up to now is      138.5 secs

     total energy              =   -3111.30127827 Ry
     estimated scf accuracy    <       0.00000012 Ry

     iteration # 27     ecut=    60.00 Ry     beta= 0.70
     Davidson diagonalization with overlap
     ethr =  6.60E-11,  avg # of iterations =  2.6

     negative rho (up, down):  4.009E-03 0.000E+00

     total cpu time spent up to now is      143.3 secs

     End of self-consistent calculation

          k = 0.0000 0.0000 0.0000 (  8413 PWs)   bands (ev):

   -70.7811 -70.7585 -70.7221 -70.6996 -70.6953 -70.6953 -70.6952 -70.6952
   -40.8767 -40.8625 -40.8272 -40.8119 -37.1804 -37.1102 -37.0004 -36.8799
   -36.8799 -36.8596 -36.8596 -36.8450 -36.8450 -36.7863 -36.7770 -36.7338
   -36.7338 -36.7297 -36.7297 -36.6335 -36.6300 -36.6300 -36.6295 -36.6295
   -36.6213 -36.6213 -36.6063 -36.6061 -17.1686 -17.1686 -17.1546 -17.1546
   -17.1533 -17.1516 -17.0127 -17.0097 -16.9953 -16.9953 -16.9807 -16.9807
     8.6305  10.6623  11.4383  12.0273  12.5181  12.6180  12.7775  12.7775
    12.9991  12.9991  13.2104  13.3012  13.3958  13.3958  13.8334  13.8334
    13.9761  13.9761  14.2139  14.3012  14.3012  14.3290  14.3290  14.7895
    14.7895  14.9237  15.4033  15.4033  15.5249  15.5249  15.8360  15.9215
    15.9215  15.9221  15.9221  16.0710  16.0710  16.0816  16.0817  16.1431
    16.1693  16.1693  16.2396  16.2874  16.2874  16.7390  16.7390  16.7653
    16.9959  16.9959  17.2963  17.2963  17.4987  17.4987  17.5215  17.5218
    17.7931  17.7931

          k = 0.0000 0.0000 0.1030 (  8461 PWs)   bands (ev):

   -70.7801 -70.7609 -70.7198 -70.7007 -70.6954 -70.6954 -70.6953 -70.6953
   -40.8760 -40.8638 -40.8258 -40.8127 -37.1774 -37.1191 -36.9870 -36.8794
   -36.8794 -36.8644 -36.8644 -36.8372 -36.8372 -36.8259 -36.7569 -36.7569
   -36.7405 -36.7072 -36.7072 -36.6382 -36.6371 -36.6371 -36.6257 -36.6257
   -36.6214 -36.6214 -36.6064 -36.6063 -17.1677 -17.1677 -17.1556 -17.1556
   -17.1529 -17.1515 -17.0128 -17.0101 -16.9943 -16.9943 -16.9817 -16.9817
     8.7074  10.3125  11.7281  12.0280  12.4172  12.7908  12.7908  12.8083
    12.9811  12.9811  13.0570  13.4041  13.4225  13.4225  13.8118  13.8118
    13.9573  13.9573  14.1907  14.1907  14.2819  14.4729  14.4729  14.8453
    14.8453  14.9584  15.3291  15.3291  15.4352  15.4352  15.7136  15.8651
    15.9359  15.9359  16.0307  16.0307  16.0628  16.0628  16.0858  16.1389
    16.1742  16.1742  16.2267  16.2267  16.3793  16.8082  16.8082  16.9822
    16.9866  16.9866  17.2884  17.2884  17.5007  17.5007  17.5215  17.5218
    17.7764  17.7764

          k = 0.0000 0.0000 0.2061 (  8448 PWs)   bands (ev):

   -70.7769 -70.7661 -70.7145 -70.7037 -70.6954 -70.6954 -70.6954 -70.6954
   -40.8739 -40.8670 -40.8224 -40.8150 -37.1687 -37.1368 -36.9552 -36.8778
   -36.8778 -36.8710 -36.8704 -36.8704 -36.8221 -36.8221 -36.7810 -36.7810
   -36.7043 -36.6843 -36.6843 -36.6521 -36.6486 -36.6486 -36.6233 -36.6233
   -36.6217 -36.6217 -36.6064 -36.6063 -17.1653 -17.1653 -17.1583 -17.1583
   -17.1521 -17.1513 -17.0127 -17.0112 -16.9915 -16.9915 -16.9842 -16.9842
     8.9343   9.7765  11.9939  12.0300  12.4689  12.8278  12.8278  12.8684
    12.9362  12.9362  13.0705  13.4212  13.4955  13.4955  13.7220  13.7220
    13.9657  13.9657  14.0932  14.0932  14.5106  14.6648  14.6648  14.9543
    14.9543  15.0445  15.1651  15.1651  15.2919  15.2919  15.4795  15.5014
    15.9682  15.9682  16.0334  16.0334  16.0908  16.0908  16.0969  16.1276
    16.1295  16.1295  16.3384  16.3384  16.6237  16.8126  16.8126  17.0219
    17.0219  17.2504  17.2504  17.4219  17.5216  17.5507  17.5507  17.5693
    17.7255  17.7255

          k = 0.0000 0.0000-0.3091 (  8448 PWs)   bands (ev):

   -70.7719 -70.7719 -70.7086 -70.7086 -70.6954 -70.6954 -70.6954 -70.6954
   -40.8707 -40.8707 -40.8184 -40.8184 -37.1546 -37.1546 -36.9149 -36.9149
   -36.8749 -36.8749 -36.8749 -36.8749 -36.8031 -36.8031 -36.8031 -36.8031
   -36.6743 -36.6743 -36.6644 -36.6644 -36.6644 -36.6644 -36.6222 -36.6222
   -36.6222 -36.6222 -36.6065 -36.6065 -17.1619 -17.1619 -17.1619 -17.1619
   -17.1515 -17.1515 -17.0122 -17.0122 -16.9878 -16.9878 -16.9878 -16.9878
     9.2988   9.2988  12.0323  12.0323  12.6754  12.6754  12.8802  12.8802
    12.8802  12.8802  13.2970  13.2970  13.6017  13.6017  13.6017  13.6017
    14.0169  14.0169  14.0169  14.0169  14.8753  14.8753  14.8753  14.8753
    14.8878  14.8878  15.1616  15.1616  15.1616  15.1616  15.3270  15.3270
    16.0086  16.0086  16.0086  16.0086  16.0774  16.0774  16.0774  16.0774
    16.1122  16.1122  16.5998  16.5998  16.5998  16.5998  16.9996  16.9996
    17.1576  17.1576  17.1576  17.1576  17.5216  17.5216  17.6429  17.6429
    17.6429  17.6429

          k = 0.0000 0.1925 0.0000 (  8467 PWs)   bands (ev):

   -70.7776 -70.7549 -70.7222 -70.7081 -70.6990 -70.6955 -70.6953 -70.6904
   -40.8740 -40.8596 -40.8303 -40.8148 -37.1588 -37.0890 -36.9979 -36.8789
   -36.8662 -36.8656 -36.8490 -36.8450 -36.8446 -36.7796 -36.7768 -36.7411
   -36.7339 -36.7306 -36.7300 -36.6479 -36.6425 -36.6385 -36.6329 -36.6297
   -36.6293 -36.6283 -36.6135 -36.6123 -17.1830 -17.1730 -17.1586 -17.1554
   -17.1503 -17.1307 -17.0290 -17.0055 -17.0006 -16.9912 -16.9765 -16.9730
     8.8969  10.8656  11.6164  12.1397  12.5585  12.6129  12.7245  12.8201
    12.9105  13.1636  13.1673  13.4070  13.4501  13.4754  13.7888  13.8868
    13.9770  14.0797  14.2520  14.2925  14.3015  14.3302  14.3736  14.6430
    14.7135  14.7238  15.0351  15.2319  15.2372  15.2917  15.5061  15.5826
    15.7720  15.8648  15.8915  15.9697  16.0139  16.0772  16.1243  16.2018
    16.2280  16.3165  16.3387  16.3668  16.5015  16.6368  16.8116  16.9020
    16.9128  17.0222  17.2964  17.3097  17.3421  17.5313  17.5529  17.5572
    17.5844  17.9258

          k = 0.0000 0.1925 0.1030 (  8459 PWs)   bands (ev):

   -70.7765 -70.7572 -70.7201 -70.7084 -70.6987 -70.6954 -70.6954 -70.6912
   -40.8732 -40.8610 -40.8288 -40.8156 -37.1559 -37.0982 -36.9843 -36.8785
   -36.8714 -36.8658 -36.8530 -36.8411 -36.8335 -36.8180 -36.7613 -36.7564
   -36.7398 -36.7116 -36.7078 -36.6493 -36.6435 -36.6420 -36.6347 -36.6310
   -36.6295 -36.6293 -36.6133 -36.6123 -17.1815 -17.1721 -17.1596 -17.1589
   -17.1474 -17.1316 -17.0280 -17.0096 -16.9963 -16.9901 -16.9775 -16.9743
     8.9719  10.5301  11.8911  12.1408  12.4639  12.6664  12.7915  12.8392
    12.9460  13.1327  13.1417  13.3777  13.4811  13.5094  13.7847  13.8730
    13.9465  14.0450  14.1440  14.2255  14.3329  14.4531  14.5109  14.7036
    14.7478  14.7728  15.0363  15.1789  15.1962  15.2668  15.5213  15.5653
    15.6921  15.8161  15.8659  15.9378  16.0159  16.0482  16.1291  16.1787
    16.2136  16.3039  16.3157  16.4094  16.5092  16.6960  16.7982  16.9162
    16.9675  17.1039  17.2919  17.3295  17.3419  17.4780  17.5528  17.5791
    17.6343  17.9014

          k = 0.0000 0.1925 0.2061 (  8434 PWs)   bands (ev):

   -70.7733 -70.7626 -70.7158 -70.7095 -70.6976 -70.6953 -70.6953 -70.6932
   -40.8712 -40.8643 -40.8253 -40.8179 -37.1474 -37.1163 -36.9537 -36.8875
   -36.8745 -36.8645 -36.8586 -36.8524 -36.8258 -36.8188 -36.7849 -36.7796
   -36.7066 -36.6915 -36.6855 -36.6545 -36.6515 -36.6501 -36.6375 -36.6354
   -36.6293 -36.6292 -36.6129 -36.6124 -17.1773 -17.1696 -17.1648 -17.1624
   -17.1429 -17.1342 -17.0251 -17.0153 -16.9899 -16.9873 -16.9800 -16.9780
     9.1931  10.0120  12.1299  12.1490  12.4938  12.6939  12.8137  12.8931
    13.0363  13.0591  13.1233  13.3780  13.5278  13.5615  13.7111  13.7961
    13.9550  14.0249  14.0659  14.1325  14.4611  14.6655  14.6850  14.8007
    14.8480  14.8529  15.0026  15.0906  15.1087  15.1864  15.3624  15.4490
    15.6811  15.8148  15.8650  15.9026  15.9288  16.0328  16.0675  16.1066
    16.2086  16.3041  16.3389  16.5146  16.5686  16.6998  16.7457  16.8309
    17.0827  17.2538  17.2738  17.3511  17.4000  17.5201  17.5462  17.6239
    17.6315  17.8317

          k = 0.0000 0.1925-0.3091 (  8434 PWs)   bands (ev):

   -70.7684 -70.7684 -70.7119 -70.7119 -70.6956 -70.6956 -70.6953 -70.6953
   -40.8680 -40.8680 -40.8213 -40.8213 -37.1338 -37.1338 -36.9177 -36.9177
   -36.8689 -36.8689 -36.8622 -36.8622 -36.8067 -36.8067 -36.8007 -36.8007
   -36.6850 -36.6850 -36.6664 -36.6664 -36.6595 -36.6595 -36.6376 -36.6376
   -36.6292 -36.6292 -36.6126 -36.6126 -17.1714 -17.1714 -17.1661 -17.1661
   -17.1382 -17.1382 -17.0207 -17.0207 -16.9836 -16.9836 -16.9835 -16.9835
     9.5481   9.5481  12.1523  12.1523  12.6368  12.6368  12.9025  12.9025
    12.9718  12.9718  13.2965  13.2965  13.5965  13.5965  13.6741  13.6741
    14.0077  14.0077  14.0632  14.0632  14.6869  14.6869  14.8308  14.8308
    14.8959  14.8959  14.9684  14.9684  15.1079  15.1079  15.2868  15.2868
    15.7950  15.7950  15.8540  15.8540  15.9340  15.9340  16.0658  16.0658
    16.2573  16.2573  16.4992  16.4992  16.6605  16.6605  16.6962  16.6962
    17.1854  17.1854  17.3568  17.3568  17.4789  17.4789  17.5463  17.5463
    17.7301  17.7301

          k = 0.0000 0.3849 0.0000 (  8446 PWs)   bands (ev):

   -70.7688 -70.7456 -70.7222 -70.7203 -70.7082 -70.6955 -70.6954 -70.6869
   -40.8668 -40.8519 -40.8381 -40.8225 -37.1066 -37.0377 -36.9925 -36.8955
   -36.8644 -36.8552 -36.8452 -36.8319 -36.8039 -36.7756 -36.7701 -36.7515
   -36.7341 -36.7339 -36.7309 -36.7033 -36.6752 -36.6747 -36.6603 -36.6396
   -36.6296 -36.6197 -36.6183 -36.6148 -17.1918 -17.1813 -17.1659 -17.1644
   -17.1403 -17.1029 -17.0545 -17.0123 -16.9961 -16.9835 -16.9687 -16.9671
     9.6464  11.3705  12.0344  12.0630  12.4128  12.6051  12.6608  12.9462
    13.0136  13.0842  13.5669  13.5810  13.6012  13.6449  13.7402  13.9324
    14.0098  14.1504  14.2553  14.2883  14.3365  14.3782  14.4210  14.4521
    14.5010  14.5524  14.5531  14.7816  14.7947  14.8942  14.9851  15.0908
    15.1084  15.4073  15.7212  16.0048  16.0910  16.1485  16.1586  16.2055
    16.2135  16.3408  16.4198  16.6372  16.6493  16.7513  16.7571  16.8515
    16.8626  17.0284  17.0356  17.3467  17.4007  17.6258  17.6842  17.6982
    17.7491  18.2688

          k = 0.0000 0.3849 0.1030 (  8442 PWs)   bands (ev):

   -70.7677 -70.7481 -70.7217 -70.7203 -70.7063 -70.6954 -70.6953 -70.6880
   -40.8662 -40.8538 -40.8361 -40.8232 -37.1041 -37.0493 -36.9780 -36.8983
   -36.8666 -36.8475 -36.8438 -36.8324 -36.8029 -36.8022 -36.7712 -36.7532
   -36.7425 -36.7229 -36.7118 -36.6999 -36.6753 -36.6718 -36.6594 -36.6428
   -36.6328 -36.6233 -36.6176 -36.6149 -17.1899 -17.1804 -17.1670 -17.1659
   -17.1389 -17.1070 -17.0505 -17.0153 -16.9932 -16.9824 -16.9696 -16.9687
     9.7152  11.1028  11.9937  12.3363  12.3672  12.6219  12.6893  12.9501
    12.9755  13.1518  13.4745  13.4990  13.6674  13.7229  13.7481  13.9178
    13.9987  14.1063  14.2173  14.2828  14.3062  14.3129  14.4000  14.4947
    14.5567  14.6054  14.6666  14.7837  14.8052  14.9538  14.9855  15.0685
    15.1303  15.4260  15.7212  15.9040  16.0280  16.0688  16.1105  16.1650
    16.2229  16.3860  16.4012  16.6431  16.6591  16.7197  16.7417  16.8540
    16.8863  17.0764  17.1802  17.2973  17.3792  17.4973  17.6552  17.7254
    17.9771  18.2441

          k = 0.0000 0.3849 0.2061 (  8428 PWs)   bands (ev):

   -70.7645 -70.7536 -70.7209 -70.7204 -70.7015 -70.6954 -70.6953 -70.6912
   -40.8643 -40.8576 -40.8322 -40.8252 -37.0965 -37.0680 -36.9517 -36.9080
   -36.8643 -36.8404 -36.8350 -36.8339 -36.8295 -36.7969 -36.7925 -36.7720
   -36.7262 -36.7165 -36.6945 -36.6856 -36.6774 -36.6617 -36.6562 -36.6520
   -36.6404 -36.6331 -36.6164 -36.6151 -17.1848 -17.1777 -17.1706 -17.1700
   -17.1343 -17.1162 -17.0414 -17.0222 -16.9869 -16.9795 -16.9731 -16.9722
     9.9173  10.6541  12.0458  12.2583  12.6035  12.6660  12.7555  12.9022
    13.0594  13.2069  13.3341  13.3805  13.7523  13.7603  13.8132  13.9021
    13.9494  14.0479  14.1887  14.2008  14.2487  14.3330  14.4610  14.5378
    14.5906  14.6308  14.7306  14.8544  14.8660  14.9811  15.0088  15.0634
    15.2648  15.5076  15.7042  15.7740  15.8649  15.9401  15.9582  16.0154
    16.2661  16.3603  16.4506  16.6350  16.6924  16.7114  16.7175  16.8552
    16.9546  17.1400  17.1776  17.3157  17.3874  17.5261  17.6492  17.8229
    17.9948  18.0959

          k = 0.0000 0.3849-0.3091 (  8420 PWs)   bands (ev):

   -70.7595 -70.7595 -70.7205 -70.7205 -70.6959 -70.6959 -70.6953 -70.6953
   -40.8613 -40.8613 -40.8283 -40.8283 -37.0843 -37.0843 -36.9262 -36.9262
   -36.8536 -36.8536 -36.8366 -36.8366 -36.8135 -36.8135 -36.7869 -36.7869
   -36.7183 -36.7183 -36.6830 -36.6830 -36.6671 -36.6671 -36.6494 -36.6494
   -36.6472 -36.6472 -36.6156 -36.6156 -17.1777 -17.1777 -17.1739 -17.1739
   -17.1262 -17.1262 -17.0313 -17.0313 -16.9796 -16.9796 -16.9758 -16.9758
    10.2393  10.2393  12.1404  12.1404  12.6868  12.6868  12.8456  12.8456
    13.1859  13.1859  13.2756  13.2756  13.7831  13.7831  13.8533  13.8533
    13.9867  13.9867  14.2017  14.2017  14.2618  14.2618  14.5199  14.5199
    14.6125  14.6125  14.7992  14.7992  14.9656  14.9656  15.0407  15.0407
    15.5208  15.5208  15.6677  15.6677  15.8044  15.8044  15.9052  15.9052
    16.3245  16.3245  16.5521  16.5521  16.6698  16.6698  16.8053  16.8053
    17.0584  17.0584  17.2210  17.2210  17.5458  17.5458  17.7598  17.7598
    17.9641  17.9641

          k = 0.0000-0.5774 0.0000 (  8428 PWs)   bands (ev):

   -70.7627 -70.7385 -70.7274 -70.7222 -70.7154 -70.6953 -70.6953 -70.6859
   -40.8610 -40.8458 -40.8442 -40.8286 -37.0724 -37.0014 -36.9897 -36.9220
   -36.8577 -36.8520 -36.8452 -36.8076 -36.7746 -36.7704 -36.7661 -36.7513
   -36.7494 -36.7337 -36.7328 -36.7320 -36.7118 -36.6895 -36.6825 -36.6434
   -36.6296 -36.6191 -36.6160 -36.6152 -17.1929 -17.1853 -17.1700 -17.1694
   -17.1338 -17.0900 -17.0673 -17.0193 -16.9905 -16.9798 -16.9666 -16.9649
    10.4966  11.0777  12.0135  12.1961  12.3672  12.6571  12.8166  12.8932
    13.0268  13.2064  13.6305  13.6558  13.7152  13.9079  13.9668  13.9750
    13.9944  14.0359  14.1241  14.2942  14.3443  14.3982  14.4039  14.4138
    14.4544  14.4915  14.5083  14.5508  14.5576  14.5662  14.6976  14.7502
    14.7825  15.0649  15.7603  16.0582  16.0782  16.1293  16.1564  16.2282
    16.2594  16.3038  16.3118  16.5713  16.6503  16.8408  16.9173  16.9698
    17.0380  17.0689  17.1371  17.1639  17.4214  17.5449  17.5697  17.6803
    17.8589  18.2118

          k = 0.0000-0.5774 0.1030 (  8456 PWs)   bands (ev):

   -70.7616 -70.7409 -70.7274 -70.7246 -70.7107 -70.6954 -70.6954 -70.6871
   -40.8605 -40.8493 -40.8406 -40.8291 -37.0703 -37.0184 -36.9716 -36.9230
   -36.8599 -36.8445 -36.8430 -36.8102 -36.7931 -36.7767 -36.7657 -36.7511
   -36.7494 -36.7455 -36.7227 -36.7165 -36.7119 -36.6818 -36.6784 -36.6468
   -36.6332 -36.6196 -36.6181 -36.6153 -17.1910 -17.1843 -17.1706 -17.1706
   -17.1335 -17.0982 -17.0592 -17.0207 -16.9891 -16.9788 -16.9681 -16.9659
    10.5531  11.1196  11.7700  12.0977  12.5669  12.6729  12.8037  12.8916
    13.0619  13.2127  13.5942  13.6533  13.7074  13.9449  13.9642  13.9871
    14.0136  14.0162  14.0916  14.2206  14.2958  14.3785  14.4085  14.4214
    14.4358  14.4530  14.5008  14.5321  14.6597  14.6823  14.6922  14.7684
    14.8880  15.1330  15.7612  15.9839  16.0118  16.0996  16.1238  16.1478
    16.2163  16.2184  16.4963  16.6445  16.6939  16.7220  16.8136  16.8723
    17.0034  17.1725  17.2044  17.2865  17.3473  17.5074  17.7180  17.7493
    17.8513  18.2005

          k = 0.0000-0.5774 0.2061 (  8448 PWs)   bands (ev):

   -70.7582 -70.7467 -70.7273 -70.7264 -70.7031 -70.6954 -70.6953 -70.6905
   -40.8590 -40.8532 -40.8367 -40.8307 -37.0635 -37.0371 -36.9504 -36.9266
   -36.8565 -36.8364 -36.8306 -36.8203 -36.8173 -36.7942 -36.7642 -36.7551
   -36.7501 -36.7495 -36.7165 -36.7124 -36.6927 -36.6675 -36.6645 -36.6564
   -36.6420 -36.6300 -36.6169 -36.6155 -17.1858 -17.1815 -17.1736 -17.1733
   -17.1307 -17.1114 -17.0462 -17.0256 -16.9849 -16.9759 -16.9725 -16.9685
    10.7167  11.1729  11.4975  11.8596  12.6734  12.7654  12.8185  12.9126
    13.1632  13.2603  13.4885  13.4977  13.7913  13.9431  13.9437  13.9611
    13.9854  14.0309  14.1364  14.1694  14.3034  14.3870  14.3965  14.3986
    14.4376  14.4626  14.4689  14.5123  14.6553  14.6737  14.8116  14.8132
    15.1763  15.3395  15.7379  15.7985  15.8901  15.9452  15.9983  16.0618
    16.2159  16.2382  16.5920  16.5965  16.7184  16.7567  16.8225  16.8285
    16.8431  17.1879  17.2794  17.3473  17.4836  17.5008  17.7896  17.8987
    17.8993  18.0952

          k = 0.0000-0.5774-0.3091 (  8456 PWs)   bands (ev):

   -70.7530 -70.7530 -70.7270 -70.7270 -70.6961 -70.6961 -70.6954 -70.6954
   -40.8565 -40.8565 -40.8333 -40.8333 -37.0523 -37.0523 -36.9351 -36.9351
   -36.8432 -36.8432 -36.8270 -36.8270 -36.8134 -36.8134 -36.7610 -36.7610
   -36.7497 -36.7497 -36.7137 -36.7137 -36.6720 -36.6720 -36.6542 -36.6542
   -36.6457 -36.6457 -36.6160 -36.6160 -17.1791 -17.1791 -17.1776 -17.1776
   -17.1231 -17.1231 -17.0344 -17.0344 -16.9787 -16.9787 -16.9721 -16.9721
    10.9643  10.9643  11.6010  11.6010  12.7163  12.7163  12.9176  12.9176
    13.3174  13.3174  13.3597  13.3597  13.8803  13.8803  13.9398  13.9398
    13.9664  13.9664  14.2139  14.2139  14.3651  14.3651  14.3861  14.3861
    14.4196  14.4196  14.4926  14.4926  14.6571  14.6571  14.8451  14.8451
    15.5100  15.5100  15.5930  15.5930  15.8426  15.8426  15.9724  15.9724
    16.2371  16.2371  16.6383  16.6383  16.6708  16.6708  16.8263  16.8263
    17.0000  17.0000  17.3460  17.3460  17.6643  17.6643  17.6900  17.6900
    18.0537  18.0538

          k = 0.1667 0.2887 0.0000 (  8435 PWs)   bands (ev):

   -70.7713 -70.7483 -70.7222 -70.7171 -70.7055 -70.6955 -70.6953 -70.6876
   -40.8689 -40.8542 -40.8358 -40.8202 -37.1205 -37.0515 -36.9939 -36.8845
   -36.8781 -36.8533 -36.8460 -36.8382 -36.8144 -36.7759 -36.7705 -36.7498
   -36.7350 -36.7316 -36.7316 -36.6928 -36.6722 -36.6435 -36.6381 -36.6363
   -36.6310 -36.6273 -36.6256 -36.6217 -17.1890 -17.1819 -17.1661 -17.1617
   -17.1404 -17.1077 -17.0494 -17.0115 -16.9987 -16.9838 -16.9693 -16.9688
     9.4063  11.2374  11.9280  12.2431  12.5237  12.5504  12.6142  12.8782
    13.0091  13.0279  13.3829  13.5303  13.5906  13.6574  13.7217  13.9173
    13.9595  14.1698  14.2244  14.3023  14.3474  14.4272  14.4462  14.4500
    14.5336  14.5980  14.6402  14.7979  14.9355  15.0421  15.1474  15.3077
    15.3516  15.4979  15.7669  15.8436  15.9459  16.0884  16.1898  16.2410
    16.2432  16.3315  16.5362  16.5563  16.6014  16.6647  16.7769  16.9267
    16.9546  17.1013  17.2299  17.2899  17.3051  17.3163  17.7491  17.7935
    17.8020  17.8791

          k = 0.1667 0.2887 0.1030 (  8433 PWs)   bands (ev):

   -70.7702 -70.7508 -70.7210 -70.7172 -70.7042 -70.6954 -70.6953 -70.6886
   -40.8682 -40.8559 -40.8340 -40.8210 -37.1179 -37.0622 -36.9798 -36.8896
   -36.8767 -36.8481 -36.8452 -36.8374 -36.8122 -36.8069 -36.7665 -36.7573
   -36.7398 -36.7175 -36.7119 -36.6913 -36.6699 -36.6452 -36.6412 -36.6360
   -36.6327 -36.6282 -36.6256 -36.6239 -17.1872 -17.1809 -17.1672 -17.1634
   -17.1389 -17.1108 -17.0464 -17.0148 -16.9953 -16.9827 -16.9708 -16.9697
     9.4774  10.9331  12.1668  12.2445  12.5227  12.5363  12.5936  12.9904
    13.0035  13.0429  13.3344  13.4769  13.6218  13.6633  13.7356  13.9256
    13.9531  14.0967  14.1906  14.2491  14.3609  14.3862  14.4848  14.4923
    14.5977  14.6357  14.7398  14.8545  14.9125  15.0276  15.1828  15.2905
    15.3258  15.5079  15.7474  15.7822  15.9074  16.0494  16.1598  16.1936
    16.2061  16.3209  16.4256  16.6245  16.6404  16.7173  16.7481  16.9204
    16.9891  17.1539  17.2435  17.2917  17.3350  17.3499  17.6222  17.7671
    17.8372  17.9385

          k = 0.1667 0.2887 0.2061 (  8429 PWs)   bands (ev):

   -70.7670 -70.7562 -70.7192 -70.7174 -70.7006 -70.6954 -70.6953 -70.6915
   -40.8663 -40.8595 -40.8303 -40.8231 -37.1101 -37.0807 -36.9522 -36.9025
   -36.8718 -36.8442 -36.8435 -36.8364 -36.8290 -36.8051 -36.7895 -36.7762
   -36.7189 -36.7069 -36.6913 -36.6837 -36.6628 -36.6516 -36.6492 -36.6382
   -36.6356 -36.6329 -36.6255 -36.6252 -17.1824 -17.1782 -17.1702 -17.1684
   -17.1342 -17.1182 -17.0391 -17.0218 -16.9887 -16.9799 -16.9751 -16.9723
     9.6864  10.4543  12.2558  12.3473  12.4870  12.5614  12.7180  12.9785
    13.0725  13.1529  13.2389  13.3777  13.6639  13.6802  13.7417  13.9067
    13.9788  14.0261  14.1366  14.1544  14.3361  14.4309  14.5673  14.5882
    14.6666  14.6696  14.8782  14.8807  14.9586  15.0024  15.1584  15.2581
    15.3640  15.5467  15.6699  15.7715  15.8451  15.9227  15.9790  16.0268
    16.1989  16.3057  16.5000  16.6162  16.6744  16.6957  16.7375  16.8579
    17.1017  17.2362  17.2723  17.3255  17.3806  17.4494  17.5480  17.6855
    17.7930  17.9478

          k = 0.1667 0.2887-0.3091 (  8432 PWs)   bands (ev):

   -70.7621 -70.7621 -70.7180 -70.7180 -70.6959 -70.6959 -70.6953 -70.6953
   -40.8632 -40.8632 -40.8263 -40.8263 -37.0975 -37.0975 -36.9239 -36.9239
   -36.8607 -36.8607 -36.8419 -36.8419 -36.8111 -36.8111 -36.7929 -36.7929
   -36.7083 -36.7083 -36.6767 -36.6767 -36.6582 -36.6582 -36.6501 -36.6501
   -36.6349 -36.6349 -36.6254 -36.6254 -17.1760 -17.1760 -17.1737 -17.1737
   -17.1268 -17.1268 -17.0302 -17.0302 -16.9816 -16.9816 -16.9759 -16.9759
    10.0206  10.0206  12.2919  12.2919  12.5599  12.5599  12.8758  12.8758
    13.1400  13.1400  13.2833  13.2833  13.6760  13.6760  13.8040  13.8040
    14.0181  14.0181  14.1249  14.1249  14.3863  14.3863  14.6286  14.6286
    14.6789  14.6789  14.9291  14.9291  14.9679  14.9679  15.1684  15.1684
    15.5172  15.5172  15.7596  15.7596  15.7790  15.7790  15.8980  15.8980
    16.2577  16.2577  16.5780  16.5780  16.6766  16.6766  16.7705  16.7705
    17.2177  17.2177  17.2912  17.2912  17.4768  17.4768  17.5991  17.5991
    17.8208  17.8208

          k = 0.1667 0.4811 0.0000 (  8430 PWs)   bands (ev):

   -70.7628 -70.7385 -70.7274 -70.7222 -70.7154 -70.6954 -70.6954 -70.6858
   -40.8609 -40.8458 -40.8443 -40.8287 -37.0677 -36.9982 -36.9897 -36.9244
   -36.8791 -36.8561 -36.8478 -36.7985 -36.7749 -36.7721 -36.7646 -36.7529
   -36.7508 -36.7380 -36.7367 -36.7255 -36.6863 -36.6808 -36.6672 -36.6401
   -36.6333 -36.6328 -36.6316 -36.6164 -17.1925 -17.1870 -17.1739 -17.1709
   -17.1253 -17.0832 -17.0725 -17.0274 -16.9893 -16.9764 -16.9709 -16.9607
    10.3020  11.5279  11.9324  12.3236  12.3376  12.6177  12.6642  12.8487
    12.8929  13.1428  13.6619  13.7129  13.7740  13.8354  13.8520  13.9163
    13.9217  14.0458  14.1967  14.2156  14.2451  14.3231  14.4165  14.4297
    14.4961  14.5129  14.5376  14.5609  14.6265  14.7166  14.8421  14.8630
    14.9968  15.1350  15.6642  15.7924  15.9494  15.9636  16.0902  16.1576
    16.4011  16.4355  16.4639  16.6110  16.6882  16.7311  16.8355  16.9590
    17.1348  17.1374  17.2169  17.2324  17.3306  17.4679  17.7319  17.7985
    17.9280  18.0358

          k = 0.1667 0.4811 0.1030 (  8437 PWs)   bands (ev):

   -70.7616 -70.7410 -70.7274 -70.7246 -70.7106 -70.6954 -70.6954 -70.6871
   -40.8604 -40.8493 -40.8407 -40.8292 -37.0655 -37.0153 -36.9719 -36.9259
   -36.8769 -36.8518 -36.8453 -36.8018 -36.7926 -36.7773 -36.7683 -36.7607
   -36.7463 -36.7412 -36.7199 -36.7151 -36.6820 -36.6788 -36.6659 -36.6436
   -36.6361 -36.6330 -36.6309 -36.6195 -17.1911 -17.1855 -17.1751 -17.1708
   -17.1256 -17.0941 -17.0618 -17.0278 -16.9887 -16.9753 -16.9723 -16.9617
    10.3633  11.4831  11.7582  12.2637  12.5566  12.5682  12.6787  12.8307
    12.9724  13.1699  13.6046  13.6626  13.7935  13.8199  13.8955  13.9113
    13.9652  14.0500  14.0983  14.1645  14.2610  14.2787  14.3741  14.4511
    14.4664  14.5219  14.5497  14.5968  14.6575  14.8020  14.8640  14.9289
    15.0353  15.1720  15.6593  15.7599  15.8537  15.9857  16.0757  16.1222
    16.2718  16.3510  16.5738  16.6218  16.6983  16.7079  16.8481  16.9824
    17.0924  17.1484  17.2056  17.2836  17.3416  17.4553  17.6659  17.9113
    17.9641  18.0126

          k = 0.1667 0.4811 0.2061 (  8453 PWs)   bands (ev):

   -70.7583 -70.7468 -70.7273 -70.7263 -70.7031 -70.6954 -70.6954 -70.6906
   -40.8589 -40.8532 -40.8367 -40.8308 -37.0591 -37.0335 -36.9528 -36.9305
   -36.8679 -36.8413 -36.8388 -36.8224 -36.8082 -36.7951 -36.7690 -36.7654
   -36.7446 -36.7429 -36.7022 -36.6986 -36.6787 -36.6659 -36.6606 -36.6529
   -36.6433 -36.6350 -36.6305 -36.6272 -17.1876 -17.1815 -17.1784 -17.1720
   -17.1244 -17.1077 -17.0484 -17.0305 -16.9862 -16.9763 -16.9722 -16.9644
    10.5426  11.1776  11.7797  12.1289  12.5468  12.6416  12.7864  12.8393
    13.1275  13.2398  13.4793  13.5274  13.8159  13.8502  13.8973  13.9255
    13.9723  14.0399  14.0596  14.1387  14.2269  14.2889  14.3471  14.3809
    14.4394  14.4939  14.5594  14.6136  14.7333  14.8515  14.9681  15.0029
    15.2193  15.3254  15.6348  15.6602  15.7232  15.8726  16.0216  16.0846
    16.1523  16.2421  16.5994  16.6489  16.6800  16.7558  16.8711  16.9885
    17.0677  17.1469  17.2489  17.3004  17.3379  17.4854  17.6830  17.8392
    17.9817  18.1364

          k = 0.1667 0.4811-0.3091 (  8450 PWs)   bands (ev):

   -70.7531 -70.7531 -70.7270 -70.7270 -70.6961 -70.6961 -70.6954 -70.6954
   -40.8565 -40.8565 -40.8334 -40.8334 -37.0483 -37.0483 -36.9390 -36.9390
   -36.8494 -36.8494 -36.8331 -36.8331 -36.8100 -36.8100 -36.7679 -36.7679
   -36.7438 -36.7438 -36.6943 -36.6943 -36.6671 -36.6671 -36.6541 -36.6541
   -36.6461 -36.6461 -36.6301 -36.6301 -17.1831 -17.1831 -17.1760 -17.1759
   -17.1186 -17.1186 -17.0375 -17.0375 -16.9815 -16.9815 -16.9683 -16.9683
    10.8248  10.8248  11.9390  11.9390  12.5991  12.5991  12.8404  12.8404
    13.3051  13.3051  13.3791  13.3791  13.8466  13.8466  13.8905  13.8905
    14.0138  14.0138  14.0972  14.0972  14.2556  14.2556  14.3710  14.3710
    14.4384  14.4384  14.5761  14.5761  14.8084  14.8084  15.0384  15.0384
    15.4338  15.4338  15.5817  15.5817  15.6907  15.6907  16.0056  16.0056
    16.1789  16.1789  16.6343  16.6343  16.7190  16.7190  16.9296  16.9296
    17.1051  17.1051  17.2800  17.2800  17.4406  17.4406  17.7576  17.7576
    18.0114  18.0114

          k = 0.3333 0.5774 0.0000 (  8475 PWs)   bands (ev):

   -70.7587 -70.7321 -70.7321 -70.7223 -70.7220 -70.6954 -70.6954 -70.6854
   -40.8527 -40.8527 -40.8372 -40.8372 -37.0326 -36.9882 -36.9579 -36.9579
   -36.9108 -36.8533 -36.8533 -36.7755 -36.7755 -36.7660 -36.7660 -36.7576
   -36.7490 -36.7490 -36.7453 -36.6837 -36.6837 -36.6807 -36.6669 -36.6669
   -36.6607 -36.6361 -36.6361 -36.6152 -17.1967 -17.1804 -17.1804 -17.1791
   -17.0992 -17.0992 -17.0543 -17.0543 -16.9794 -16.9794 -16.9719 -16.9562
    10.8984  11.6383  11.6383  12.3879  12.4209  12.6448  12.6448  12.7464
    12.7464  13.0960  13.7912  13.7912  13.8685  13.8685  13.9808  13.9808
    13.9832  13.9897  14.0281  14.0281  14.1162  14.2240  14.2695  14.2695
    14.5262  14.5262  14.5384  14.5936  14.5936  14.8961  14.8961  14.9549
    14.9882  15.0649  15.6719  15.7144  15.7144  15.7546  15.7546  16.0446
    16.5655  16.5655  16.5823  16.5823  16.8018  16.8018  16.9540  16.9540
    16.9783  17.1482  17.3219  17.3920  17.3920  17.4112  17.7790  17.7790
    17.8278  17.9739

          k = 0.3333 0.5774 0.1030 (  8439 PWs)   bands (ev):

   -70.7574 -70.7320 -70.7320 -70.7315 -70.7126 -70.6954 -70.6954 -70.6866
   -40.8527 -40.8527 -40.8372 -40.8372 -37.0307 -36.9938 -36.9581 -36.9581
   -36.9014 -36.8502 -36.8502 -36.7845 -36.7809 -36.7809 -36.7730 -36.7730
   -36.7400 -36.7400 -36.7219 -36.6812 -36.6808 -36.6808 -36.6665 -36.6665
   -36.6589 -36.6386 -36.6386 -36.6184 -17.1956 -17.1804 -17.1792 -17.1792
   -17.1029 -17.1029 -17.0509 -17.0509 -16.9802 -16.9802 -16.9708 -16.9572
    10.9491  11.6791  11.6791  12.0110  12.5270  12.5270  12.8000  12.8166
    12.8166  13.1300  13.7558  13.7558  13.8499  13.9181  13.9181  13.9360
    13.9705  13.9705  14.0301  14.0301  14.1573  14.2002  14.2043  14.2043
    14.4748  14.4748  14.5737  14.7317  14.7317  14.8937  14.9023  14.9023
    15.0840  15.1480  15.6270  15.6270  15.6426  15.8390  15.8390  15.9853
    16.4061  16.4061  16.6415  16.6415  16.8097  16.8097  16.9689  17.0021
    17.0021  17.1775  17.2273  17.3815  17.3815  17.4206  17.7746  17.7746
    17.9685  17.9686

          k = 0.3333 0.5774 0.2061 (  8442 PWs)   bands (ev):

   -70.7537 -70.7404 -70.7320 -70.7320 -70.7038 -70.6954 -70.6954 -70.6903
   -40.8528 -40.8528 -40.8371 -40.8371 -37.0253 -37.0052 -36.9585 -36.9585
   -36.8789 -36.8422 -36.8422 -36.8176 -36.7977 -36.7977 -36.7739 -36.7739
   -36.7315 -36.7315 -36.7004 -36.6833 -36.6741 -36.6741 -36.6643 -36.6643
   -36.6525 -36.6459 -36.6459 -36.6276 -17.1925 -17.1837 -17.1766 -17.1766
   -17.1096 -17.1096 -17.0449 -17.0449 -16.9821 -16.9821 -16.9678 -16.9599
    11.0979  11.6468  11.7843  11.7843  12.3489  12.3489  12.8751  12.8751
    13.1654  13.2279  13.6380  13.7229  13.7229  13.7868  13.9133  13.9133
    13.9487  13.9487  14.0877  14.0877  14.1587  14.1633  14.1672  14.1672
    14.4284  14.4284  14.6543  14.7617  14.7617  14.8232  15.0574  15.0574
    15.2329  15.3390  15.5080  15.5080  15.5633  15.8270  15.9197  15.9197
    16.2367  16.2367  16.6469  16.6469  16.8210  16.8210  16.9643  17.0820
    17.0820  17.0852  17.2588  17.3435  17.3435  17.4094  17.7847  17.7847
    17.9271  17.9271

          k = 0.3333 0.5774-0.3091 (  8466 PWs)   bands (ev):

   -70.7480 -70.7480 -70.7320 -70.7320 -70.6962 -70.6962 -70.6955 -70.6955
   -40.8529 -40.8529 -40.8370 -40.8370 -37.0166 -37.0166 -36.9587 -36.9587
   -36.8499 -36.8499 -36.8360 -36.8360 -36.8074 -36.8074 -36.7740 -36.7740
   -36.7287 -36.7287 -36.6883 -36.6883 -36.6713 -36.6713 -36.6564 -36.6564
   -36.6559 -36.6559 -36.6408 -36.6408 -17.1882 -17.1882 -17.1752 -17.1752
   -17.1128 -17.1128 -17.0421 -17.0421 -16.9831 -16.9831 -16.9638 -16.9638
    11.3355  11.3355  11.8637  11.8637  12.2430  12.2430  12.8940  12.8940
    13.3527  13.3527  13.5708  13.5708  13.7098  13.7098  13.8918  13.8918
    13.9383  13.9383  14.1324  14.1324  14.1499  14.1499  14.1739  14.1739
    14.4005  14.4005  14.7396  14.7396  14.7425  14.7425  15.2018  15.2018
    15.3843  15.3843  15.4061  15.4061  15.6176  15.6176  15.9508  15.9508
    16.1685  16.1685  16.6448  16.6448  16.8257  16.8257  16.9970  16.9970
    17.1249  17.1249  17.3113  17.3113  17.3477  17.3477  17.7953  17.7953
    17.8996  17.8996

     the Fermi energy is    16.1766 ev

!    total energy              =   -3111.30127829 Ry
     estimated scf accuracy    <          1.4E-09 Ry
     smearing contrib. (-TS)   =       0.00010535 Ry
     internal energy E=F+TS    =   -3111.30138363 Ry

     The total energy is F=E-TS. E is the sum of the following terms:
     one-electron contribution =   -1208.32131903 Ry
     hartree contribution      =     698.30046807 Ry
     xc contribution           =    -349.43804242 Ry
     ewald contribution        =   -1642.60130586 Ry
     one-center paw contrib.   =    -609.24118439 Ry

     convergence has been achieved in  27 iterations

     negative rho (up, down):  4.009E-03 0.000E+00

     Forces acting on atoms (cartesian axes, Ry/au):

     atom    1 type  1   force =    -0.01370353    0.00791174    0.00000000
     atom    2 type  1   force =     0.01370353   -0.00791174    0.00000000
     atom    3 type  1   force =     0.00000000    0.01582348   -0.00000000
     atom    4 type  1   force =     0.01370353    0.00791174    0.00000000
     atom    5 type  1   force =    -0.00000000   -0.01582348   -0.00000000
     atom    6 type  1   force =    -0.01370353   -0.00791174    0.00000000
     atom    7 type  1   force =     0.00000000   -0.00000000    0.00000000
     atom    8 type  1   force =     0.00000000    0.00000000   -0.00000000
     atom    9 type  2   force =     0.00000000    0.00000000   -0.01091275
     atom   10 type  2   force =    -0.00000000   -0.00000000   -0.01091275
     atom   11 type  2   force =     0.00000000   -0.00000000    0.01091275
     atom   12 type  2   force =     0.00000000    0.00000000    0.01091275

     Total force =     0.044482     Total SCF correction =     0.000082


     Computing stress (Cartesian axis) and pressure


     negative rho (up, down):  4.009E-03 0.000E+00
          total   stress  (Ry/bohr**3)                   (kbar)     P=     -149.09
  -0.00109863   0.00000000   0.00000000         -161.61        0.00        0.00
   0.00000000  -0.00109863   0.00000000            0.00     -161.61        0.00
  -0.00000000  -0.00000000  -0.00084317           -0.00       -0.00     -124.03


     Writing all to output data dir ./FeAl.save/ :
     XML data file, charge density, pseudopotentials, collected wavefunctions

     init_run     :      2.68s CPU      2.74s WALL (       1 calls)
     electrons    :    138.94s CPU    140.45s WALL (       1 calls)
     forces       :      0.55s CPU      0.56s WALL (       1 calls)
     stress       :      1.93s CPU      1.95s WALL (       1 calls)

     Called by init_run:
     wfcinit      :      1.95s CPU      1.98s WALL (       1 calls)
     potinit      :      0.38s CPU      0.39s WALL (       1 calls)
     hinit0       :      0.27s CPU      0.28s WALL (       1 calls)

     Called by electrons:
     c_bands      :    119.04s CPU    120.23s WALL (      27 calls)
     sum_band     :     14.24s CPU     14.41s WALL (      27 calls)
     v_of_rho     :      0.18s CPU      0.20s WALL (      28 calls)
     newd         :      0.96s CPU      0.97s WALL (      28 calls)
     PAW_pot      :      4.65s CPU      4.70s WALL (      28 calls)
     mix_rho      :      0.04s CPU      0.05s WALL (      27 calls)

     Called by c_bands:
     init_us_2    :      0.68s CPU      0.69s WALL (    1596 calls)
     cegterg      :    115.58s CPU    116.72s WALL (     756 calls)

     Called by *egterg:
     cdiaghg      :     33.22s CPU     33.34s WALL (    2723 calls)
     h_psi        :     57.42s CPU     58.34s WALL (    2751 calls)
     s_psi        :      4.38s CPU      4.42s WALL (    2751 calls)
     g_psi        :      0.21s CPU      0.21s WALL (    1967 calls)

     Called by h_psi:
     h_psi:calbec :      7.56s CPU      7.62s WALL (    2751 calls)
     vloc_psi     :     45.21s CPU     46.05s WALL (    2751 calls)
     add_vuspsi   :      4.45s CPU      4.47s WALL (    2751 calls)

     General routines
     calbec       :     12.15s CPU     12.23s WALL (    3983 calls)
     fft          :      0.35s CPU      0.37s WALL (     387 calls)
     ffts         :      0.21s CPU      0.21s WALL (      55 calls)
     fftw         :     49.86s CPU     50.73s WALL (  469046 calls)
     interpolate  :      0.21s CPU      0.22s WALL (      28 calls)

     Parallel routines

     PWSCF        :    144.77s CPU    151.03s WALL


   This run was terminated on:  14:43:32  27Oct2025            

=------------------------------------------------------------------------------=
   JOB DONE.
=------------------------------------------------------------------------------=
Note: The following floating-point exceptions are signalling: IEEE_UNDERFLOW_FLAG IEEE_DENORMAL
Note: The following floating-point exceptions are signalling: IEEE_UNDERFLOW_FLAG IEEE_DENORMAL
Note: The following floating-point exceptions are signalling: IEEE_UNDERFLOW_FLAG IEEE_DENORMAL
Note: The following floating-point exceptions are signalling: IEEE_UNDERFLOW_FLAG IEEE_DENORMAL
Note: The following floating-point exceptions are signalling: IEEE_UNDERFLOW_FLAG IEEE_DENORMAL
Note: The following floating-point exceptions are signalling: IEEE_UNDERFLOW_FLAG IEEE_DENORMAL
Note: The following floating-point exceptions are signalling: IEEE_UNDERFLOW_FLAG IEEE_DENORMAL
Note: The following floating-point exceptions are signalling: IEEE_UNDERFLOW_FLAG IEEE_DENORMAL
Note: The following floating-point exceptions are signalling: IEEE_UNDERFLOW_FLAG IEEE_DENORMAL
Note: The following floating-point exceptions are signalling: IEEE_UNDERFLOW_FLAG IEEE_DENORMAL
Note: The following floating-point exceptions are signalling: IEEE_UNDERFLOW_FLAG IEEE_DENORMAL
Note: The following floating-point exceptions are signalling: IEEE_UNDERFLOW_FLAG IEEE_DENORMAL
Note: The following floating-point exceptions are signalling: IEEE_UNDERFLOW_FLAG IEEE_DENORMAL
Note: The following floating-point exceptions are signalling: IEEE_UNDERFLOW_FLAG IEEE_DENORMAL
Note: The following floating-point exceptions are signalling: IEEE_UNDERFLOW_FLAG IEEE_DENORMAL
Note: The following floating-point exceptions are signalling: IEEE_UNDERFLOW_FLAG IEEE_DENORMAL
