
     Program PWSCF v.7.4 starts on 27Oct2025 at 14:43:33 

     This program is part of the open-source Quantum ESPRESSO suite
     for quantum simulation of materials; please cite
         "P. Giannozzi et al., J. Phys.:Condens. Matter 21 395502 (2009);
         "P. Giannozzi et al., J. Phys.:Condens. Matter 29 465901 (2017);
         "P. Giannozzi et al., J. Chem. Phys. 152 154105 (2020);
          URL http://www.quantum-espresso.org", 
     in publications or presentations arising from this work. More details at
     http://www.quantum-espresso.org/quote

     Parallel version (MPI & OpenMP), running on      16 processor cores
     Number of MPI processes:                16
     Threads/MPI process:                     1

     MPI processes distributed on     1 nodes
     228796 MiB available memory on the printing compute node when the environment starts

     Reading input from TiFe2_ecutwfc_convergence/TiFe2_ecut70.in

     Current dimensions of program PWSCF are:
     Max number of different atomic species (ntypx) = 10
     Max number of k-points (npk) =  40000
     Max angular momentum in pseudopotentials (lmaxx) =  4
     file Fe.pbe-spn-kjpaw_psl.0.2.1.UPF: wavefunction(s)  3D renormalized

     IMPORTANT: XC functional enforced from input :
     Exchange-correlation= PBE
                           (   1   4   3   4   0   0   0)
     Any further DFT definition will be discarded
     Please, verify this is what you really want

     Message from routine setup:
     using ibrav=0 with symmetry is DISCOURAGED, use correct ibrav instead

     R & G space division:  proc/nbgrp/npool/nimage =      16
     Subspace diagonalization in iterative solution of the eigenvalue problem:
     a serial algorithm will be used


     Parallelization info
     --------------------
     sticks:   dense  smooth     PW     G-vecs:    dense   smooth      PW
     Min         126     101     28                 7424     5325     788
     Max         127     102     29                 7429     5330     793
     Sum        2029    1627    451               118817    85249   12623

     Using Slab Decomposition



     bravais-lattice index     =            0
     lattice parameter (alat)  =       9.1568  a.u.
     unit-cell volume          =    1075.5644 (a.u.)^3
     number of atoms/cell      =           12
     number of atomic types    =            2
     number of electrons       =       176.00
     number of Kohn-Sham states=          106
     kinetic-energy cutoff     =      70.0000  Ry
     charge density cutoff     =     350.0000  Ry
     scf convergence threshold =      1.0E-08
     mixing beta               =       0.7000
     number of iterations used =            8  plain     mixing
     Exchange-correlation= PBE
                           (   1   4   3   4   0   0   0)

     celldm(1)=   9.156781  celldm(2)=   0.000000  celldm(3)=   0.000000
     celldm(4)=   0.000000  celldm(5)=   0.000000  celldm(6)=   0.000000

     crystal axes: (cart. coord. in units of alat)
               a(1) = (   1.000000   0.000000   0.000000 )  
               a(2) = (  -0.500000   0.866025   0.000000 )  
               a(3) = (   0.000000   0.000000   1.617623 )  

     reciprocal axes: (cart. coord. in units 2 pi/alat)
               b(1) = (  1.000000  0.577350 -0.000000 )  
               b(2) = (  0.000000  1.154701  0.000000 )  
               b(3) = (  0.000000 -0.000000  0.618191 )  


     PseudoPot. # 1 for Fe read from file:
     ./Fe.pbe-spn-kjpaw_psl.0.2.1.UPF
     MD5 check sum: e86618425769142926afa95317d90200
     Pseudo is Projector augmented-wave + core cor, Zval = 16.0
     Generated using "atomic" code by A. Dal Corso  v.5.0.99 svn rev. 10869
     Shape of augmentation charge: PSQ
     Using radial grid of 1191 points,  6 beta functions with: 
                l(1) =   0
                l(2) =   0
                l(3) =   1
                l(4) =   1
                l(5) =   2
                l(6) =   2
     Q(r) pseudized with 0 coefficients 


     PseudoPot. # 2 for Ti read from file:
     ./Ti_pbe_v1.4.uspp.F.UPF
     MD5 check sum: 88a00a6731bd790ddea75d31a80cb452
     Pseudo is Ultrasoft + core correction, Zval = 12.0
     Generated by new atomic code, or converted to UPF format
     Using radial grid of  851 points,  6 beta functions with: 
                l(1) =   0
                l(2) =   0
                l(3) =   1
                l(4) =   1
                l(5) =   2
                l(6) =   2
     Q(r) pseudized with  6 coefficients,  rinner =    1.000   1.000   1.000
                                                       1.000   1.000

     atomic species   valence    mass     pseudopotential
     Fe               16.00    55.84500     Fe( 1.00)
     Ti               12.00    47.86700     Ti( 1.00)

     24 Sym. Ops., with inversion, found (12 have fractional translation)



   Cartesian axes

     site n.     atom                  positions (alat units)
         1        Fe     tau(   1) = (   0.7465670   0.1463196   0.4044057  )
         2        Fe     tau(   2) = (  -0.2465670   0.7197058   1.2132171  )
         3        Fe     tau(   3) = (  -0.0000000   0.2926392   1.2132171  )
         4        Fe     tau(   4) = (   0.2534330   0.1463196   0.4044057  )
         5        Fe     tau(   5) = (   0.5000000   0.5733862   0.4044057  )
         6        Fe     tau(   6) = (   0.2465670   0.7197058   1.2132171  )
         7        Fe     tau(   7) = (   0.0000000   0.0000000   0.0000000  )
         8        Fe     tau(   8) = (   0.0000000   0.0000000   0.8088114  )
         9        Ti     tau(   9) = (   0.5000000   0.2886751   1.5200090  )
        10        Ti     tau(  10) = (  -0.0000000   0.5773503   0.7111976  )
        11        Ti     tau(  11) = (  -0.0000000   0.5773503   0.0976138  )
        12        Ti     tau(  12) = (   0.5000000   0.2886751   0.9064252  )

     number of k points=    28  Marzari-Vanderbilt smearing, width (Ry)=  0.0050
                       cart. coord. in units 2pi/alat
        k(    1) = (   0.0000000   0.0000000   0.0000000), wk =   0.0092593
        k(    2) = (   0.0000000   0.0000000   0.1030318), wk =   0.0185185
        k(    3) = (   0.0000000   0.0000000   0.2060637), wk =   0.0185185
        k(    4) = (   0.0000000   0.0000000  -0.3090955), wk =   0.0092593
        k(    5) = (   0.0000000   0.1924501   0.0000000), wk =   0.0555556
        k(    6) = (   0.0000000   0.1924501   0.1030318), wk =   0.1111111
        k(    7) = (   0.0000000   0.1924501   0.2060637), wk =   0.1111111
        k(    8) = (   0.0000000   0.1924501  -0.3090955), wk =   0.0555556
        k(    9) = (   0.0000000   0.3849002   0.0000000), wk =   0.0555556
        k(   10) = (   0.0000000   0.3849002   0.1030318), wk =   0.1111111
        k(   11) = (   0.0000000   0.3849002   0.2060637), wk =   0.1111111
        k(   12) = (   0.0000000   0.3849002  -0.3090955), wk =   0.0555556
        k(   13) = (   0.0000000  -0.5773503   0.0000000), wk =   0.0277778
        k(   14) = (   0.0000000  -0.5773503   0.1030318), wk =   0.0555556
        k(   15) = (   0.0000000  -0.5773503   0.2060637), wk =   0.0555556
        k(   16) = (   0.0000000  -0.5773503  -0.3090955), wk =   0.0277778
        k(   17) = (   0.1666667   0.2886751   0.0000000), wk =   0.0555556
        k(   18) = (   0.1666667   0.2886751   0.1030318), wk =   0.1111111
        k(   19) = (   0.1666667   0.2886751   0.2060637), wk =   0.1111111
        k(   20) = (   0.1666667   0.2886751  -0.3090955), wk =   0.0555556
        k(   21) = (   0.1666667   0.4811252   0.0000000), wk =   0.1111111
        k(   22) = (   0.1666667   0.4811252   0.1030318), wk =   0.2222222
        k(   23) = (   0.1666667   0.4811252   0.2060637), wk =   0.2222222
        k(   24) = (   0.1666667   0.4811252  -0.3090955), wk =   0.1111111
        k(   25) = (   0.3333333   0.5773503   0.0000000), wk =   0.0185185
        k(   26) = (   0.3333333   0.5773503   0.1030318), wk =   0.0370370
        k(   27) = (   0.3333333   0.5773503   0.2060637), wk =   0.0370370
        k(   28) = (   0.3333333   0.5773503  -0.3090955), wk =   0.0185185

     Dense  grid:   118817 G-vectors     FFT dimensions: (  60,  60,  90)

     Smooth grid:    85249 G-vectors     FFT dimensions: (  50,  50,  80)

     Estimated max dynamical RAM per process >      64.78 MB

     Estimated total dynamical RAM >       1.01 GB

     Check: negative core charge=   -0.000122

     Initial potential from superposition of free atoms

     starting charge     171.9963, renormalised to     176.0000

     negative rho (up, down):  4.215E-03 0.000E+00
     Starting wfcs are  144 randomized atomic wfcs
     Checking if some PAW data can be deallocated... 

     total cpu time spent up to now is        3.4 secs

     per-process dynamical memory:   156.0 Mb

     Self-consistent Calculation

     iteration #  1     ecut=    70.00 Ry     beta= 0.70
     Davidson diagonalization with overlap
     ethr =  1.00E-02,  avg # of iterations =  2.0

     negative rho (up, down):  6.647E-04 0.000E+00

     total cpu time spent up to now is        8.9 secs

     total energy              =   -3016.96949448 Ry
     estimated scf accuracy    <     116.59446436 Ry

     iteration #  2     ecut=    70.00 Ry     beta= 0.70
     Davidson diagonalization with overlap
     ethr =  1.00E-02,  avg # of iterations =  6.6

     total cpu time spent up to now is       20.8 secs

     total energy              =   -3075.94265631 Ry
     estimated scf accuracy    <     699.68789649 Ry

     iteration #  3     ecut=    70.00 Ry     beta= 0.70
     Davidson diagonalization with overlap
     ethr =  1.00E-02,  avg # of iterations =  5.1

     total cpu time spent up to now is       29.9 secs

     total energy              =   -3120.91415382 Ry
     estimated scf accuracy    <      91.74937263 Ry

     iteration #  4     ecut=    70.00 Ry     beta= 0.70
     Davidson diagonalization with overlap
     ethr =  1.00E-02,  avg # of iterations =  1.2

     total cpu time spent up to now is       34.4 secs

     total energy              =   -3116.49554806 Ry
     estimated scf accuracy    <      54.57994194 Ry

     iteration #  5     ecut=    70.00 Ry     beta= 0.70
     Davidson diagonalization with overlap
     ethr =  1.00E-02,  avg # of iterations =  1.7

     total cpu time spent up to now is       39.1 secs

     total energy              =   -3115.15680619 Ry
     estimated scf accuracy    <      41.93210036 Ry

     iteration #  6     ecut=    70.00 Ry     beta= 0.70
     Davidson diagonalization with overlap
     ethr =  1.00E-02,  avg # of iterations =  1.0

     negative rho (up, down):  3.673E-04 0.000E+00

     total cpu time spent up to now is       43.4 secs

     total energy              =   -3113.65060966 Ry
     estimated scf accuracy    <      26.07298072 Ry

     iteration #  7     ecut=    70.00 Ry     beta= 0.70
     Davidson diagonalization with overlap
     ethr =  1.00E-02,  avg # of iterations =  1.0

     negative rho (up, down):  1.732E-03 0.000E+00

     total cpu time spent up to now is       47.8 secs

     total energy              =   -3111.30822952 Ry
     estimated scf accuracy    <      18.42577742 Ry

     iteration #  8     ecut=    70.00 Ry     beta= 0.70
     Davidson diagonalization with overlap
     ethr =  1.00E-02,  avg # of iterations =  1.0

     negative rho (up, down):  2.041E-03 0.000E+00

     total cpu time spent up to now is       52.1 secs

     total energy              =   -3111.45872697 Ry
     estimated scf accuracy    <       6.18687368 Ry

     iteration #  9     ecut=    70.00 Ry     beta= 0.70
     Davidson diagonalization with overlap
     ethr =  3.52E-03,  avg # of iterations =  1.8

     negative rho (up, down):  2.567E-03 0.000E+00

     total cpu time spent up to now is       56.9 secs

     total energy              =   -3111.22027418 Ry
     estimated scf accuracy    <       4.43176954 Ry

     iteration # 10     ecut=    70.00 Ry     beta= 0.70
     Davidson diagonalization with overlap
     ethr =  2.52E-03,  avg # of iterations =  1.9

     negative rho (up, down):  3.900E-03 0.000E+00

     total cpu time spent up to now is       61.7 secs

     total energy              =   -3110.87818145 Ry
     estimated scf accuracy    <       1.60808542 Ry

     iteration # 11     ecut=    70.00 Ry     beta= 0.70
     Davidson diagonalization with overlap
     ethr =  9.14E-04,  avg # of iterations =  5.4

     negative rho (up, down):  3.368E-03 0.000E+00

     total cpu time spent up to now is       69.8 secs

     total energy              =   -3111.26082334 Ry
     estimated scf accuracy    <       7.13835739 Ry

     iteration # 12     ecut=    70.00 Ry     beta= 0.70
     Davidson diagonalization with overlap
     ethr =  9.14E-04,  avg # of iterations =  1.1

     negative rho (up, down):  2.397E-03 0.000E+00

     total cpu time spent up to now is       74.2 secs

     total energy              =   -3111.04937700 Ry
     estimated scf accuracy    <       1.55545935 Ry

     iteration # 13     ecut=    70.00 Ry     beta= 0.70
     Davidson diagonalization with overlap
     ethr =  8.84E-04,  avg # of iterations =  3.3

     negative rho (up, down):  2.830E-03 0.000E+00

     total cpu time spent up to now is       80.1 secs

     total energy              =   -3111.36068985 Ry
     estimated scf accuracy    <       1.58180329 Ry

     iteration # 14     ecut=    70.00 Ry     beta= 0.70
     Davidson diagonalization with overlap
     ethr =  8.84E-04,  avg # of iterations =  1.0

     negative rho (up, down):  3.065E-03 0.000E+00

     total cpu time spent up to now is       84.4 secs

     total energy              =   -3111.30082597 Ry
     estimated scf accuracy    <       0.84949213 Ry

     iteration # 15     ecut=    70.00 Ry     beta= 0.70
     Davidson diagonalization with overlap
     ethr =  4.83E-04,  avg # of iterations =  1.2

     negative rho (up, down):  3.090E-03 0.000E+00

     total cpu time spent up to now is       88.8 secs

     total energy              =   -3111.31951460 Ry
     estimated scf accuracy    <       0.11386135 Ry

     iteration # 16     ecut=    70.00 Ry     beta= 0.70
     Davidson diagonalization with overlap
     ethr =  6.47E-05,  avg # of iterations =  2.2

     negative rho (up, down):  3.116E-03 0.000E+00

     total cpu time spent up to now is       93.6 secs

     total energy              =   -3111.31939202 Ry
     estimated scf accuracy    <       0.07315006 Ry

     iteration # 17     ecut=    70.00 Ry     beta= 0.70
     Davidson diagonalization with overlap
     ethr =  4.16E-05,  avg # of iterations =  2.1

     negative rho (up, down):  3.171E-03 0.000E+00

     total cpu time spent up to now is       98.3 secs

     total energy              =   -3111.31574124 Ry
     estimated scf accuracy    <       0.06161957 Ry

     iteration # 18     ecut=    70.00 Ry     beta= 0.70
     Davidson diagonalization with overlap
     ethr =  3.50E-05,  avg # of iterations =  1.4

     negative rho (up, down):  3.223E-03 0.000E+00

     total cpu time spent up to now is      102.8 secs

     total energy              =   -3111.31502897 Ry
     estimated scf accuracy    <       0.01679397 Ry

     iteration # 19     ecut=    70.00 Ry     beta= 0.70
     Davidson diagonalization with overlap
     c_bands:  1 eigenvalues not converged
     ethr =  9.54E-06,  avg # of iterations =  6.5

     negative rho (up, down):  3.222E-03 0.000E+00

     total cpu time spent up to now is      109.5 secs

     total energy              =   -3111.31652250 Ry
     estimated scf accuracy    <       0.00002289 Ry

     iteration # 20     ecut=    70.00 Ry     beta= 0.70
     Davidson diagonalization with overlap
     c_bands:  1 eigenvalues not converged
     ethr =  1.30E-08,  avg # of iterations = 10.5

     negative rho (up, down):  3.223E-03 0.000E+00

     total cpu time spent up to now is      126.8 secs

     total energy              =   -3111.31675390 Ry
     estimated scf accuracy    <       0.00003729 Ry

     iteration # 21     ecut=    70.00 Ry     beta= 0.70
     Davidson diagonalization with overlap
     ethr =  1.30E-08,  avg # of iterations =  2.0

     negative rho (up, down):  3.226E-03 0.000E+00

     total cpu time spent up to now is      131.6 secs

     total energy              =   -3111.31675453 Ry
     estimated scf accuracy    <       0.00002308 Ry

     iteration # 22     ecut=    70.00 Ry     beta= 0.70
     Davidson diagonalization with overlap
     ethr =  1.30E-08,  avg # of iterations =  1.4

     negative rho (up, down):  3.227E-03 0.000E+00

     total cpu time spent up to now is      136.1 secs

     total energy              =   -3111.31675755 Ry
     estimated scf accuracy    <       0.00001976 Ry

     iteration # 23     ecut=    70.00 Ry     beta= 0.70
     Davidson diagonalization with overlap
     ethr =  1.12E-08,  avg # of iterations =  1.0

     negative rho (up, down):  3.225E-03 0.000E+00

     total cpu time spent up to now is      140.4 secs

     total energy              =   -3111.31675448 Ry
     estimated scf accuracy    <       0.00003259 Ry

     iteration # 24     ecut=    70.00 Ry     beta= 0.70
     Davidson diagonalization with overlap
     ethr =  1.12E-08,  avg # of iterations =  1.2

     negative rho (up, down):  3.225E-03 0.000E+00

     total cpu time spent up to now is      144.8 secs

     total energy              =   -3111.31675560 Ry
     estimated scf accuracy    <       0.00000094 Ry

     iteration # 25     ecut=    70.00 Ry     beta= 0.70
     Davidson diagonalization with overlap
     ethr =  5.33E-10,  avg # of iterations =  4.6

     negative rho (up, down):  3.225E-03 0.000E+00

     total cpu time spent up to now is      151.5 secs

     total energy              =   -3111.31675585 Ry
     estimated scf accuracy    <       0.00000061 Ry

     iteration # 26     ecut=    70.00 Ry     beta= 0.70
     Davidson diagonalization with overlap
     ethr =  3.46E-10,  avg # of iterations =  1.0

     negative rho (up, down):  3.225E-03 0.000E+00

     total cpu time spent up to now is      155.8 secs

     total energy              =   -3111.31675582 Ry
     estimated scf accuracy    <       0.00000037 Ry

     iteration # 27     ecut=    70.00 Ry     beta= 0.70
     Davidson diagonalization with overlap
     ethr =  2.09E-10,  avg # of iterations =  1.7

     negative rho (up, down):  3.225E-03 0.000E+00

     total cpu time spent up to now is      160.5 secs

     End of self-consistent calculation

          k = 0.0000 0.0000 0.0000 ( 10635 PWs)   bands (ev):

   -70.7869 -70.7642 -70.7283 -70.7056 -70.7013 -70.7013 -70.7012 -70.7012
   -40.8813 -40.8671 -40.8318 -40.8165 -37.1863 -37.1161 -37.0061 -36.8872
   -36.8872 -36.8673 -36.8673 -36.8528 -36.8528 -36.7932 -36.7822 -36.7412
   -36.7412 -36.7379 -36.7379 -36.6399 -36.6368 -36.6368 -36.6364 -36.6364
   -36.6272 -36.6272 -36.6149 -36.6141 -17.1730 -17.1730 -17.1590 -17.1590
   -17.1577 -17.1560 -17.0171 -17.0141 -16.9997 -16.9997 -16.9851 -16.9851
     8.6219  10.6535  11.4283  12.0213  12.5115  12.6118  12.7713  12.7713
    12.9925  12.9925  13.2031  13.2962  13.3886  13.3886  13.8291  13.8291
    13.9690  13.9690  14.2097  14.2967  14.2967  14.3226  14.3226  14.7811
    14.7811  14.9150  15.3953  15.3953  15.5156  15.5156  15.8307  15.9149
    15.9149  15.9170  15.9170  16.0662  16.0662  16.0707  16.0746  16.1359
    16.1628  16.1628  16.2346  16.2801  16.2801  16.7328  16.7328  16.7543
    16.9911  16.9911  17.2901  17.2901  17.4935  17.4935  17.5163  17.5166
    17.7886  17.7886

          k = 0.0000 0.0000 0.1030 ( 10605 PWs)   bands (ev):

   -70.7857 -70.7666 -70.7260 -70.7067 -70.7013 -70.7013 -70.7012 -70.7012
   -40.8806 -40.8685 -40.8304 -40.8173 -37.1831 -37.1246 -36.9928 -36.8866
   -36.8866 -36.8718 -36.8718 -36.8450 -36.8450 -36.8322 -36.7647 -36.7647
   -36.7460 -36.7147 -36.7147 -36.6442 -36.6441 -36.6441 -36.6321 -36.6321
   -36.6272 -36.6272 -36.6149 -36.6142 -17.1721 -17.1721 -17.1600 -17.1600
   -17.1574 -17.1559 -17.0172 -17.0145 -16.9987 -16.9987 -16.9861 -16.9861
     8.6988  10.3035  11.7187  12.0220  12.4108  12.7846  12.7846  12.8019
    12.9747  12.9747  13.0506  13.3982  13.4152  13.4152  13.8065  13.8065
    13.9512  13.9512  14.1857  14.1857  14.2772  14.4668  14.4668  14.8370
    14.8370  14.9498  15.3214  15.3214  15.4264  15.4264  15.7079  15.8560
    15.9308  15.9308  16.0238  16.0238  16.0579  16.0579  16.0786  16.1317
    16.1676  16.1676  16.2198  16.2198  16.3726  16.8015  16.8015  16.9714
    16.9816  16.9816  17.2822  17.2822  17.4958  17.4958  17.5163  17.5166
    17.7720  17.7720

          k = 0.0000 0.0000 0.2061 ( 10618 PWs)   bands (ev):

   -70.7825 -70.7718 -70.7207 -70.7099 -70.7013 -70.7013 -70.7013 -70.7013
   -40.8785 -40.8717 -40.8270 -40.8196 -37.1742 -37.1424 -36.9613 -36.8851
   -36.8851 -36.8777 -36.8777 -36.8771 -36.8298 -36.8298 -36.7888 -36.7888
   -36.7099 -36.6920 -36.6920 -36.6580 -36.6560 -36.6560 -36.6298 -36.6298
   -36.6276 -36.6276 -36.6146 -36.6145 -17.1697 -17.1697 -17.1627 -17.1627
   -17.1566 -17.1557 -17.0171 -17.0156 -16.9959 -16.9959 -16.9886 -16.9886
     8.9257   9.7676  11.9863  12.0238  12.4619  12.8216  12.8216  12.8620
    12.9298  12.9298  13.0642  13.4152  13.4882  13.4882  13.7153  13.7153
    13.9609  13.9609  14.0885  14.0885  14.5043  14.6582  14.6582  14.9461
    14.9461  15.0355  15.1577  15.1577  15.2835  15.2835  15.4719  15.4954
    15.9630  15.9630  16.0282  16.0282  16.0843  16.0843  16.0898  16.1204
    16.1228  16.1228  16.3312  16.3312  16.6162  16.8053  16.8053  17.0165
    17.0165  17.2443  17.2443  17.4074  17.5164  17.5462  17.5462  17.5648
    17.7211  17.7211

          k = 0.0000 0.0000-0.3091 ( 10564 PWs)   bands (ev):

   -70.7776 -70.7776 -70.7148 -70.7148 -70.7013 -70.7013 -70.7013 -70.7013
   -40.8753 -40.8753 -40.8231 -40.8231 -37.1600 -37.1600 -36.9210 -36.9210
   -36.8821 -36.8821 -36.8821 -36.8821 -36.8107 -36.8107 -36.8107 -36.8107
   -36.6799 -36.6799 -36.6719 -36.6719 -36.6719 -36.6719 -36.6281 -36.6281
   -36.6281 -36.6281 -36.6145 -36.6145 -17.1663 -17.1663 -17.1663 -17.1663
   -17.1559 -17.1559 -17.0166 -17.0166 -16.9922 -16.9922 -16.9922 -16.9922
     9.2902   9.2902  12.0257  12.0257  12.6687  12.6687  12.8740  12.8740
    12.8740  12.8740  13.2908  13.2908  13.5946  13.5946  13.5946  13.5946
    14.0124  14.0124  14.0124  14.0124  14.8682  14.8682  14.8682  14.8682
    14.8792  14.8792  15.1536  15.1536  15.1536  15.1536  15.3211  15.3211
    16.0035  16.0035  16.0035  16.0035  16.0708  16.0708  16.0708  16.0708
    16.1050  16.1050  16.5926  16.5926  16.5926  16.5926  16.9910  16.9910
    17.1516  17.1516  17.1516  17.1516  17.5164  17.5164  17.6385  17.6385
    17.6385  17.6385

          k = 0.0000 0.1925 0.0000 ( 10627 PWs)   bands (ev):

   -70.7834 -70.7606 -70.7283 -70.7140 -70.7049 -70.7013 -70.7012 -70.6964
   -40.8786 -40.8642 -40.8349 -40.8195 -37.1644 -37.0946 -37.0038 -36.8859
   -36.8734 -36.8723 -36.8567 -36.8528 -36.8518 -36.7866 -36.7822 -36.7484
   -36.7411 -36.7389 -36.7381 -36.6543 -36.6491 -36.6452 -36.6401 -36.6368
   -36.6358 -36.6346 -36.6214 -36.6198 -17.1874 -17.1775 -17.1629 -17.1598
   -17.1547 -17.1351 -17.0334 -17.0100 -17.0050 -16.9956 -16.9809 -16.9774
     8.8882  10.8567  11.6064  12.1333  12.5518  12.6067  12.7178  12.8137
    12.9039  13.1569  13.1600  13.3997  13.4429  13.4703  13.7842  13.8824
    13.9697  14.0725  14.2472  14.2861  14.2973  14.3238  14.3691  14.6350
    14.7050  14.7155  15.0283  15.2236  15.2294  15.2839  15.4996  15.5736
    15.7665  15.8596  15.8842  15.9625  16.0069  16.0715  16.1176  16.1966
    16.2209  16.3076  16.3313  16.3600  16.4943  16.6303  16.8055  16.8974
    16.9083  17.0164  17.2917  17.3035  17.3374  17.5263  17.5463  17.5513
    17.5797  17.9204

          k = 0.0000 0.1925 0.1030 ( 10621 PWs)   bands (ev):

   -70.7823 -70.7630 -70.7263 -70.7143 -70.7046 -70.7013 -70.7012 -70.6972
   -40.8779 -40.8656 -40.8334 -40.8202 -37.1615 -37.1038 -36.9902 -36.8855
   -36.8783 -36.8729 -36.8604 -36.8487 -36.8412 -36.8244 -36.7689 -36.7642
   -36.7457 -36.7193 -36.7155 -36.6558 -36.6499 -36.6489 -36.6417 -36.6373
   -36.6365 -36.6357 -36.6213 -36.6198 -17.1859 -17.1765 -17.1640 -17.1632
   -17.1518 -17.1360 -17.0324 -17.0140 -17.0007 -16.9945 -16.9819 -16.9787
     8.9632  10.5210  11.8818  12.1344  12.4572  12.6601  12.7848  12.8328
    12.9394  13.1260  13.1346  13.3707  13.4739  13.5037  13.7792  13.8679
    13.9401  14.0385  14.1390  14.2204  14.3280  14.4468  14.5050  14.6955
    14.7392  14.7646  15.0296  15.1709  15.1882  15.2590  15.5127  15.5587
    15.6847  15.8101  15.8605  15.9311  16.0099  16.0412  16.1226  16.1729
    16.2067  16.2960  16.3088  16.4030  16.5020  16.6889  16.7917  16.9107
    16.9625  17.0980  17.2860  17.3247  17.3371  17.4724  17.5478  17.5743
    17.6280  17.8961

          k = 0.0000 0.1925 0.2061 ( 10622 PWs)   bands (ev):

   -70.7791 -70.7683 -70.7220 -70.7155 -70.7035 -70.7013 -70.7013 -70.6992
   -40.8758 -40.8689 -40.8299 -40.8225 -37.1530 -37.1219 -36.9597 -36.8940
   -36.8816 -36.8718 -36.8660 -36.8591 -36.8334 -36.8265 -36.7925 -36.7874
   -36.7127 -36.6991 -36.6931 -36.6611 -36.6587 -36.6566 -36.6442 -36.6420
   -36.6362 -36.6359 -36.6208 -36.6201 -17.1817 -17.1740 -17.1692 -17.1668
   -17.1473 -17.1387 -17.0295 -17.0197 -16.9943 -16.9917 -16.9844 -16.9824
     9.1844  10.0029  12.1225  12.1422  12.4865  12.6874  12.8071  12.8867
    13.0296  13.0525  13.1167  13.3708  13.5219  13.5542  13.7044  13.7895
    13.9501  14.0199  14.0611  14.1278  14.4545  14.6587  14.6784  14.7921
    14.8398  14.8449  14.9956  15.0827  15.1009  15.1787  15.3550  15.4410
    15.6746  15.8092  15.8593  15.8966  15.9227  16.0263  16.0600  16.0997
    16.2022  16.2976  16.3321  16.5084  16.5614  16.6921  16.7388  16.8248
    17.0772  17.2479  17.2680  17.3463  17.3952  17.5150  17.5412  17.6190
    17.6258  17.8265

          k = 0.0000 0.1925-0.3091 ( 10642 PWs)   bands (ev):

   -70.7742 -70.7742 -70.7180 -70.7180 -70.7016 -70.7016 -70.7013 -70.7013
   -40.8727 -40.8727 -40.8259 -40.8259 -37.1395 -37.1395 -36.9237 -36.9237
   -36.8760 -36.8760 -36.8697 -36.8697 -36.8145 -36.8145 -36.8086 -36.8086
   -36.6917 -36.6917 -36.6739 -36.6739 -36.6664 -36.6664 -36.6441 -36.6441
   -36.6360 -36.6360 -36.6205 -36.6205 -17.1758 -17.1758 -17.1705 -17.1705
   -17.1426 -17.1426 -17.0251 -17.0251 -16.9880 -16.9880 -16.9879 -16.9879
     9.5392   9.5392  12.1455  12.1455  12.6299  12.6299  12.8960  12.8960
    12.9653  12.9653  13.2897  13.2897  13.5900  13.5900  13.6669  13.6669
    14.0031  14.0031  14.0586  14.0586  14.6785  14.6785  14.8234  14.8234
    14.8889  14.8889  14.9603  14.9603  15.1001  15.1001  15.2798  15.2798
    15.7888  15.7888  15.8483  15.8483  15.9278  15.9278  16.0584  16.0584
    16.2510  16.2510  16.4920  16.4920  16.6533  16.6533  16.6899  16.6899
    17.1796  17.1796  17.3518  17.3518  17.4739  17.4739  17.5409  17.5409
    17.7251  17.7251

          k = 0.0000 0.3849 0.0000 ( 10659 PWs)   bands (ev):

   -70.7747 -70.7514 -70.7283 -70.7262 -70.7142 -70.7013 -70.7013 -70.6930
   -40.8714 -40.8566 -40.8427 -40.8271 -37.1122 -37.0434 -36.9986 -36.9017
   -36.8709 -36.8630 -36.8532 -36.8391 -36.8111 -36.7823 -36.7770 -36.7585
   -36.7425 -36.7409 -36.7393 -36.7102 -36.6824 -36.6814 -36.6681 -36.6473
   -36.6371 -36.6260 -36.6258 -36.6222 -17.1962 -17.1858 -17.1703 -17.1688
   -17.1447 -17.1073 -17.0589 -17.0167 -17.0006 -16.9879 -16.9730 -16.9715
     9.6375  11.3614  12.0252  12.0535  12.4063  12.5978  12.6540  12.9394
    13.0058  13.0772  13.5597  13.5736  13.5939  13.6396  13.7351  13.9250
    14.0048  14.1448  14.2485  14.2815  14.3295  14.3716  14.4146  14.4461
    14.4964  14.5448  14.5481  14.7741  14.7882  14.8875  14.9760  15.0808
    15.1013  15.4020  15.7156  15.9977  16.0868  16.1430  16.1517  16.1978
    16.2065  16.3352  16.4141  16.6306  16.6436  16.7437  16.7494  16.8470
    16.8574  17.0241  17.0294  17.3408  17.3955  17.6210  17.6784  17.6941
    17.7411  18.2631

          k = 0.0000 0.3849 0.1030 ( 10653 PWs)   bands (ev):

   -70.7735 -70.7539 -70.7278 -70.7262 -70.7123 -70.7013 -70.7013 -70.6941
   -40.8708 -40.8585 -40.8407 -40.8278 -37.1096 -37.0551 -36.9841 -36.9045
   -36.8733 -36.8550 -36.8517 -36.8397 -36.8096 -36.8096 -36.7787 -36.7610
   -36.7494 -36.7308 -36.7195 -36.7069 -36.6828 -36.6780 -36.6671 -36.6504
   -36.6404 -36.6293 -36.6251 -36.6222 -17.1943 -17.1848 -17.1714 -17.1703
   -17.1434 -17.1115 -17.0549 -17.0197 -16.9976 -16.9868 -16.9740 -16.9731
     9.7062  11.0936  11.9847  12.3273  12.3602  12.6149  12.6825  12.9427
    12.9687  13.1446  13.4672  13.4921  13.6602  13.7172  13.7424  13.9110
    13.9935  14.1009  14.2108  14.2765  14.3000  14.3064  14.3930  14.4880
    14.5506  14.5983  14.6604  14.7761  14.7992  14.9467  14.9765  15.0587
    15.1235  15.4208  15.7155  15.8971  16.0226  16.0629  16.1046  16.1582
    16.2165  16.3801  16.3947  16.6371  16.6521  16.7139  16.7342  16.8491
    16.8811  17.0705  17.1752  17.2916  17.3738  17.4910  17.6503  17.7208
    17.9708  18.1975

          k = 0.0000 0.3849 0.2061 ( 10635 PWs)   bands (ev):

   -70.7703 -70.7594 -70.7270 -70.7263 -70.7075 -70.7013 -70.7013 -70.6973
   -40.8689 -40.8622 -40.8368 -40.8298 -37.1021 -37.0738 -36.9577 -36.9141
   -36.8710 -36.8481 -36.8422 -36.8414 -36.8365 -36.8044 -36.8001 -36.7797
   -36.7334 -36.7240 -36.7021 -36.6929 -36.6849 -36.6679 -36.6638 -36.6594
   -36.6479 -36.6393 -36.6238 -36.6224 -17.1892 -17.1821 -17.1750 -17.1744
   -17.1387 -17.1206 -17.0459 -17.0266 -16.9913 -16.9839 -16.9775 -16.9765
     9.9082  10.6448  12.0371  12.2506  12.5955  12.6592  12.7484  12.8949
    13.0526  13.1999  13.3270  13.3738  13.7452  13.7544  13.8071  13.8966
    13.9433  14.0428  14.1819  14.1953  14.2433  14.3252  14.4540  14.5307
    14.5838  14.6238  14.7234  14.8482  14.8582  14.9720  15.0009  15.0546
    15.2591  15.5026  15.6985  15.7674  15.8589  15.9342  15.9530  16.0090
    16.2597  16.3542  16.4442  16.6279  16.6859  16.7041  16.7121  16.8500
    16.9492  17.1345  17.1720  17.3102  17.3823  17.5202  17.6443  17.8178
    17.9891  18.0906

          k = 0.0000 0.3849-0.3091 ( 10634 PWs)   bands (ev):

   -70.7654 -70.7654 -70.7265 -70.7265 -70.7020 -70.7020 -70.7013 -70.7013
   -40.8660 -40.8660 -40.8329 -40.8329 -37.0900 -37.0900 -36.9322 -36.9322
   -36.8604 -36.8604 -36.8443 -36.8443 -36.8210 -36.8210 -36.7945 -36.7945
   -36.7256 -36.7256 -36.6905 -36.6905 -36.6745 -36.6745 -36.6571 -36.6571
   -36.6532 -36.6532 -36.6229 -36.6229 -17.1821 -17.1821 -17.1783 -17.1783
   -17.1306 -17.1306 -17.0357 -17.0357 -16.9840 -16.9840 -16.9802 -16.9802
    10.2301  10.2301  12.1322  12.1322  12.6798  12.6798  12.8383  12.8383
    13.1789  13.1789  13.2688  13.2688  13.7772  13.7772  13.8465  13.8465
    13.9816  13.9816  14.1965  14.1965  14.2539  14.2539  14.5128  14.5128
    14.6055  14.6055  14.7919  14.7919  14.9576  14.9576  15.0321  15.0321
    15.5153  15.5153  15.6623  15.6623  15.7986  15.7986  15.8990  15.8990
    16.3183  16.3183  16.5457  16.5457  16.6627  16.6627  16.8000  16.8000
    17.0528  17.0528  17.2156  17.2156  17.5407  17.5407  17.7541  17.7542
    17.9589  17.9589

          k = 0.0000-0.5774 0.0000 ( 10698 PWs)   bands (ev):

   -70.7686 -70.7443 -70.7333 -70.7284 -70.7213 -70.7013 -70.7013 -70.6920
   -40.8656 -40.8505 -40.8488 -40.8332 -37.0782 -37.0074 -36.9961 -36.9281
   -36.8655 -36.8577 -36.8533 -36.8152 -36.7822 -36.7774 -36.7731 -36.7583
   -36.7574 -36.7415 -36.7413 -36.7396 -36.7201 -36.6959 -36.6909 -36.6512
   -36.6372 -36.6268 -36.6225 -36.6221 -17.1973 -17.1897 -17.1745 -17.1738
   -17.1382 -17.0944 -17.0717 -17.0237 -16.9949 -16.9842 -16.9710 -16.9693
    10.4876  11.0683  12.0042  12.1885  12.3586  12.6498  12.8089  12.8835
    13.0196  13.1998  13.6241  13.6486  13.7078  13.9026  13.9609  13.9684
    13.9879  14.0269  14.1187  14.2879  14.3369  14.3918  14.3961  14.4079
    14.4478  14.4846  14.5026  14.5443  14.5486  14.5614  14.6893  14.7446
    14.7760  15.0613  15.7545  16.0541  16.0712  16.1223  16.1509  16.2229
    16.2524  16.2957  16.3069  16.5661  16.6458  16.8330  16.9103  16.9623
    17.0336  17.0624  17.1310  17.1553  17.4154  17.5403  17.5646  17.6753
    17.8549  18.2068

          k = 0.0000-0.5774 0.1030 ( 10662 PWs)   bands (ev):

   -70.7675 -70.7468 -70.7333 -70.7306 -70.7166 -70.7013 -70.7013 -70.6932
   -40.8651 -40.8540 -40.8453 -40.8338 -37.0758 -37.0243 -36.9776 -36.9289
   -36.8668 -36.8509 -36.8508 -36.8176 -36.8002 -36.7839 -36.7725 -36.7583
   -36.7574 -36.7530 -36.7307 -36.7240 -36.7201 -36.6879 -36.6865 -36.6544
   -36.6408 -36.6257 -36.6256 -36.6225 -17.1954 -17.1887 -17.1750 -17.1750
   -17.1379 -17.1026 -17.0636 -17.0251 -16.9935 -16.9831 -16.9725 -16.9703
    10.5440  11.1102  11.7605  12.0895  12.5588  12.6653  12.7962  12.8827
    13.0547  13.2062  13.5879  13.6457  13.7007  13.9387  13.9583  13.9808
    14.0072  14.0083  14.0855  14.2143  14.2896  14.3706  14.4027  14.4160
    14.4289  14.4464  14.4940  14.5232  14.6531  14.6742  14.6856  14.7628
    14.8824  15.1293  15.7553  15.9784  16.0049  16.0942  16.1173  16.1419
    16.2098  16.2128  16.4897  16.6391  16.6893  16.7155  16.8059  16.8660
    16.9960  17.1660  17.1980  17.2812  17.3415  17.5026  17.7123  17.7442
    17.8470  18.1958

          k = 0.0000-0.5774 0.2061 ( 10632 PWs)   bands (ev):

   -70.7641 -70.7526 -70.7331 -70.7322 -70.7091 -70.7013 -70.7013 -70.6966
   -40.8636 -40.8578 -40.8413 -40.8354 -37.0689 -37.0428 -36.9564 -36.9324
   -36.8631 -36.8442 -36.8373 -36.8269 -36.8248 -36.8012 -36.7710 -36.7623
   -36.7579 -36.7574 -36.7246 -36.7205 -36.7003 -36.6754 -36.6705 -36.6641
   -36.6496 -36.6359 -36.6242 -36.6228 -17.1902 -17.1859 -17.1780 -17.1777
   -17.1351 -17.1158 -17.0506 -17.0300 -16.9893 -16.9803 -16.9769 -16.9728
    10.7075  11.1638  11.4877  11.8505  12.6662  12.7580  12.8107  12.9049
    13.1559  13.2539  13.4824  13.4900  13.7852  13.9369  13.9374  13.9551
    13.9787  14.0251  14.1293  14.1622  14.2969  14.3813  14.3907  14.3909
    14.4304  14.4559  14.4604  14.5056  14.6473  14.6664  14.8055  14.8074
    15.1708  15.3351  15.7321  15.7919  15.8835  15.9405  15.9922  16.0555
    16.2101  16.2322  16.5854  16.5897  16.7114  16.7516  16.8164  16.8218
    16.8377  17.1821  17.2734  17.3417  17.4777  17.4956  17.7847  17.8930
    17.8937  18.0899

          k = 0.0000-0.5774-0.3091 ( 10652 PWs)   bands (ev):

   -70.7589 -70.7589 -70.7329 -70.7329 -70.7022 -70.7022 -70.7013 -70.7013
   -40.8611 -40.8611 -40.8379 -40.8379 -37.0579 -37.0579 -36.9408 -36.9408
   -36.8499 -36.8499 -36.8347 -36.8347 -36.8203 -36.8203 -36.7680 -36.7680
   -36.7577 -36.7577 -36.7218 -36.7218 -36.6798 -36.6798 -36.6619 -36.6619
   -36.6519 -36.6519 -36.6233 -36.6233 -17.1835 -17.1835 -17.1820 -17.1820
   -17.1275 -17.1275 -17.0388 -17.0388 -16.9831 -16.9831 -16.9765 -16.9765
    10.9550  10.9550  11.5914  11.5914  12.7090  12.7090  12.9101  12.9101
    13.3099  13.3099  13.3536  13.3536  13.8741  13.8741  13.9339  13.9339
    13.9602  13.9602  14.2067  14.2067  14.3575  14.3575  14.3803  14.3803
    14.4120  14.4120  14.4859  14.4859  14.6495  14.6495  14.8392  14.8392
    15.5044  15.5044  15.5874  15.5874  15.8368  15.8368  15.9661  15.9661
    16.2312  16.2312  16.6312  16.6312  16.6644  16.6644  16.8211  16.8211
    16.9942  16.9942  17.3403  17.3403  17.6592  17.6592  17.6838  17.6838
    18.0490  18.0490

          k = 0.1667 0.2887 0.0000 ( 10636 PWs)   bands (ev):

   -70.7771 -70.7541 -70.7283 -70.7230 -70.7115 -70.7013 -70.7013 -70.6937
   -40.8735 -40.8588 -40.8404 -40.8249 -37.1261 -37.0571 -36.9999 -36.8907
   -36.8850 -36.8610 -36.8538 -36.8456 -36.8216 -36.7823 -36.7775 -36.7570
   -36.7421 -36.7401 -36.7397 -36.6996 -36.6788 -36.6502 -36.6445 -36.6440
   -36.6383 -36.6354 -36.6337 -36.6278 -17.1934 -17.1863 -17.1705 -17.1661
   -17.1449 -17.1121 -17.0538 -17.0159 -17.0031 -16.9882 -16.9737 -16.9732
     9.3975  11.2282  11.9182  12.2350  12.5174  12.5435  12.6070  12.8708
    13.0019  13.0211  13.3758  13.5228  13.5834  13.6525  13.7167  13.9128
    13.9521  14.1643  14.2170  14.2959  14.3411  14.4196  14.4404  14.4449
    14.5284  14.5902  14.6338  14.7908  14.9273  15.0349  15.1413  15.2982
    15.3428  15.4923  15.7615  15.8364  15.9389  16.0839  16.1830  16.2338
    16.2377  16.3243  16.5291  16.5506  16.5941  16.6599  16.7699  16.9216
    16.9481  17.0964  17.2251  17.2853  17.2988  17.3103  17.7428  17.7890
    17.7968  17.8729

          k = 0.1667 0.2887 0.1030 ( 10638 PWs)   bands (ev):

   -70.7760 -70.7566 -70.7272 -70.7231 -70.7102 -70.7013 -70.7013 -70.6947
   -40.8729 -40.8605 -40.8387 -40.8256 -37.1235 -37.0678 -36.9859 -36.8959
   -36.8836 -36.8557 -36.8530 -36.8448 -36.8194 -36.8134 -36.7741 -36.7651
   -36.7466 -36.7255 -36.7194 -36.6984 -36.6765 -36.6520 -36.6485 -36.6428
   -36.6399 -36.6359 -36.6335 -36.6304 -17.1917 -17.1853 -17.1716 -17.1678
   -17.1433 -17.1152 -17.0508 -17.0192 -16.9997 -16.9871 -16.9753 -16.9741
     9.4684  10.9238  12.1577  12.2366  12.5154  12.5299  12.5867  12.9830
    12.9962  13.0361  13.3273  13.4699  13.6148  13.6578  13.7297  13.9208
    13.9465  14.0913  14.1834  14.2437  14.3538  14.3807  14.4776  14.4855
    14.5915  14.6281  14.7334  14.8481  14.9042  15.0202  15.1763  15.2814
    15.3170  15.5023  15.7415  15.7759  15.9010  16.0445  16.1532  16.1866
    16.2005  16.3140  16.4193  16.6181  16.6331  16.7119  16.7415  16.9145
    16.9840  17.1485  17.2376  17.2865  17.3304  17.3439  17.6165  17.7623
    17.8313  17.9328

          k = 0.1667 0.2887 0.2061 ( 10637 PWs)   bands (ev):

   -70.7728 -70.7620 -70.7253 -70.7234 -70.7066 -70.7013 -70.7013 -70.6976
   -40.8709 -40.8641 -40.8349 -40.8277 -37.1158 -37.0865 -36.9582 -36.9087
   -36.8788 -36.8514 -36.8512 -36.8433 -36.8366 -36.8125 -36.7972 -36.7840
   -36.7259 -36.7145 -36.6986 -36.6911 -36.6691 -36.6586 -36.6567 -36.6448
   -36.6423 -36.6399 -36.6333 -36.6328 -17.1868 -17.1826 -17.1746 -17.1728
   -17.1386 -17.1226 -17.0435 -17.0262 -16.9931 -16.9843 -16.9795 -16.9767
     9.6774  10.4451  12.2480  12.3395  12.4792  12.5548  12.7109  12.9713
    13.0658  13.1455  13.2319  13.3708  13.6580  13.6734  13.7352  13.9006
    13.9734  14.0212  14.1307  14.1491  14.3296  14.4227  14.5602  14.5813
    14.6591  14.6624  14.8702  14.8734  14.9526  14.9944  15.1492  15.2492
    15.3578  15.5411  15.6639  15.7657  15.8393  15.9170  15.9735  16.0201
    16.1923  16.2989  16.4937  16.6099  16.6676  16.6889  16.7312  16.8524
    17.0967  17.2305  17.2668  17.3198  17.3754  17.4447  17.5425  17.6800
    17.7877  17.9421

          k = 0.1667 0.2887-0.3091 ( 10634 PWs)   bands (ev):

   -70.7679 -70.7679 -70.7240 -70.7240 -70.7019 -70.7019 -70.7013 -70.7013
   -40.8679 -40.8679 -40.8309 -40.8309 -37.1033 -37.1033 -36.9299 -36.9299
   -36.8677 -36.8677 -36.8494 -36.8494 -36.8187 -36.8187 -36.8005 -36.8005
   -36.7155 -36.7155 -36.6841 -36.6841 -36.6654 -36.6654 -36.6565 -36.6565
   -36.6416 -36.6416 -36.6331 -36.6331 -17.1804 -17.1804 -17.1781 -17.1781
   -17.1312 -17.1312 -17.0346 -17.0346 -16.9860 -16.9860 -16.9803 -16.9803
    10.0115  10.0115  12.2843  12.2843  12.5527  12.5527  12.8688  12.8688
    13.1332  13.1332  13.2760  13.2760  13.6698  13.6698  13.7973  13.7973
    14.0133  14.0133  14.1197  14.1197  14.3785  14.3785  14.6213  14.6213
    14.6714  14.6714  14.9216  14.9216  14.9605  14.9605  15.1595  15.1595
    15.5116  15.5116  15.7537  15.7537  15.7736  15.7736  15.8917  15.8917
    16.2511  16.2511  16.5717  16.5717  16.6697  16.6697  16.7648  16.7648
    17.2126  17.2126  17.2855  17.2855  17.4715  17.4716  17.5939  17.5939
    17.8153  17.8153

          k = 0.1667 0.4811 0.0000 ( 10628 PWs)   bands (ev):

   -70.7686 -70.7443 -70.7333 -70.7283 -70.7213 -70.7013 -70.7013 -70.6919
   -40.8656 -40.8504 -40.8489 -40.8333 -37.0733 -37.0039 -36.9959 -36.9303
   -36.8851 -36.8639 -36.8557 -36.8056 -36.7824 -36.7794 -36.7715 -36.7599
   -36.7583 -36.7452 -36.7439 -36.7338 -36.6934 -36.6882 -36.6746 -36.6478
   -36.6406 -36.6403 -36.6391 -36.6223 -17.1969 -17.1914 -17.1783 -17.1753
   -17.1297 -17.0876 -17.0769 -17.0318 -16.9937 -16.9808 -16.9753 -16.9650
    10.2928  11.5187  11.9232  12.3146  12.3298  12.6097  12.6565  12.8406
    12.8852  13.1364  13.6554  13.7055  13.7680  13.8299  13.8445  13.9114
    13.9145  14.0393  14.1906  14.2086  14.2388  14.3163  14.4098  14.4223
    14.4899  14.5051  14.5315  14.5531  14.6211  14.7104  14.8371  14.8564
    14.9889  15.1299  15.6589  15.7857  15.9441  15.9563  16.0849  16.1525
    16.3938  16.4277  16.4587  16.6055  16.6808  16.7254  16.8280  16.9537
    17.1298  17.1311  17.2100  17.2265  17.3249  17.4630  17.7266  17.7931
    17.9234  18.0302

          k = 0.1667 0.4811 0.1030 ( 10643 PWs)   bands (ev):

   -70.7675 -70.7468 -70.7333 -70.7306 -70.7166 -70.7013 -70.7013 -70.6931
   -40.8650 -40.8539 -40.8453 -40.8338 -37.0711 -37.0212 -36.9779 -36.9318
   -36.8831 -36.8594 -36.8532 -36.8090 -36.7996 -36.7847 -36.7757 -36.7684
   -36.7536 -36.7485 -36.7272 -36.7231 -36.6895 -36.6858 -36.6732 -36.6513
   -36.6437 -36.6403 -36.6383 -36.6255 -17.1956 -17.1899 -17.1795 -17.1752
   -17.1300 -17.0985 -17.0662 -17.0322 -16.9931 -16.9797 -16.9767 -16.9660
    10.3540  11.4740  11.7486  12.2558  12.5478  12.5599  12.6710  12.8232
    12.9646  13.1635  13.5979  13.6555  13.7876  13.8134  13.8897  13.9045
    13.9588  14.0439  14.0925  14.1581  14.2543  14.2721  14.3672  14.4442
    14.4588  14.5146  14.5426  14.5904  14.6507  14.7963  14.8570  14.9229
    15.0285  15.1672  15.6538  15.7533  15.8473  15.9802  16.0703  16.1164
    16.2650  16.3439  16.5678  16.6151  16.6913  16.7017  16.8422  16.9768
    17.0864  17.1423  17.1994  17.2780  17.3363  17.4501  17.6609  17.9058
    17.9590  18.0071

          k = 0.1667 0.4811 0.2061 ( 10637 PWs)   bands (ev):

   -70.7641 -70.7526 -70.7331 -70.7322 -70.7091 -70.7013 -70.7013 -70.6966
   -40.8635 -40.8578 -40.8414 -40.8354 -37.0646 -37.0392 -36.9587 -36.9364
   -36.8741 -36.8488 -36.8466 -36.8289 -36.8157 -36.8024 -36.7763 -36.7730
   -36.7519 -36.7502 -36.7099 -36.7063 -36.6863 -36.6731 -36.6675 -36.6605
   -36.6508 -36.6419 -36.6379 -36.6336 -17.1920 -17.1859 -17.1828 -17.1764
   -17.1288 -17.1121 -17.0528 -17.0349 -16.9906 -16.9807 -16.9766 -16.9688
    10.5333  11.1683  11.7703  12.1204  12.5383  12.6339  12.7787  12.8321
    13.1199  13.2333  13.4726  13.5206  13.8095  13.8437  13.8916  13.9192
    13.9659  14.0337  14.0540  14.1324  14.2195  14.2825  14.3404  14.3742
    14.4318  14.4863  14.5527  14.6071  14.7258  14.8443  14.9623  14.9953
    15.2138  15.3206  15.6290  15.6538  15.7174  15.8681  16.0156  16.0782
    16.1456  16.2352  16.5926  16.6422  16.6734  16.7493  16.8659  16.9828
    17.0624  17.1412  17.2430  17.2948  17.3325  17.4799  17.6780  17.8338
    17.9767  18.1307

          k = 0.1667 0.4811-0.3091 ( 10644 PWs)   bands (ev):

   -70.7589 -70.7589 -70.7329 -70.7329 -70.7022 -70.7022 -70.7013 -70.7013
   -40.8611 -40.8611 -40.8380 -40.8380 -37.0539 -37.0539 -36.9449 -36.9449
   -36.8558 -36.8558 -36.8407 -36.8407 -36.8175 -36.8175 -36.7754 -36.7754
   -36.7511 -36.7511 -36.7021 -36.7021 -36.6747 -36.6747 -36.6619 -36.6619
   -36.6524 -36.6524 -36.6373 -36.6373 -17.1875 -17.1875 -17.1804 -17.1804
   -17.1230 -17.1230 -17.0419 -17.0419 -16.9860 -16.9860 -16.9727 -16.9727
    10.8155  10.8155  11.9299  11.9299  12.5909  12.5909  12.8332  12.8332
    13.2980  13.2980  13.3726  13.3726  13.8403  13.8403  13.8845  13.8845
    14.0081  14.0081  14.0903  14.0903  14.2490  14.2490  14.3641  14.3641
    14.4309  14.4309  14.5693  14.5693  14.8009  14.8009  15.0316  15.0316
    15.4283  15.4283  15.5759  15.5759  15.6857  15.6857  15.9993  15.9993
    16.1722  16.1722  16.6273  16.6273  16.7126  16.7126  16.9244  16.9244
    17.0998  17.0998  17.2742  17.2742  17.4351  17.4351  17.7525  17.7525
    18.0059  18.0059

          k = 0.3333 0.5774 0.0000 ( 10662 PWs)   bands (ev):

   -70.7646 -70.7378 -70.7378 -70.7283 -70.7278 -70.7013 -70.7013 -70.6915
   -40.8573 -40.8573 -40.8418 -40.8418 -37.0380 -36.9945 -36.9639 -36.9639
   -36.9163 -36.8611 -36.8611 -36.7837 -36.7837 -36.7731 -36.7731 -36.7644
   -36.7561 -36.7561 -36.7517 -36.6905 -36.6905 -36.6891 -36.6752 -36.6752
   -36.6678 -36.6438 -36.6438 -36.6211 -17.2011 -17.1848 -17.1848 -17.1835
   -17.1036 -17.1036 -17.0587 -17.0587 -16.9838 -16.9838 -16.9763 -16.9606
    10.8890  11.6289  11.6289  12.3782  12.4124  12.6363  12.6363  12.7383
    12.7383  13.0906  13.7862  13.7862  13.8613  13.8613  13.9750  13.9750
    13.9776  13.9822  14.0209  14.0209  14.1108  14.2157  14.2612  14.2612
    14.5198  14.5198  14.5317  14.5885  14.5885  14.8897  14.8897  14.9472
    14.9820  15.0611  15.6657  15.7076  15.7076  15.7489  15.7489  16.0405
    16.5577  16.5577  16.5768  16.5768  16.7940  16.7940  16.9481  16.9481
    16.9731  17.1424  17.3163  17.3873  17.3873  17.4047  17.7739  17.7739
    17.8229  17.9691

          k = 0.3333 0.5774 0.1030 ( 10626 PWs)   bands (ev):

   -70.7633 -70.7378 -70.7378 -70.7375 -70.7186 -70.7013 -70.7013 -70.6927
   -40.8573 -40.8573 -40.8418 -40.8418 -37.0360 -36.9998 -36.9640 -36.9640
   -36.9070 -36.8579 -36.8579 -36.7908 -36.7884 -36.7884 -36.7809 -36.7809
   -36.7466 -36.7466 -36.7289 -36.6895 -36.6877 -36.6877 -36.6747 -36.6747
   -36.6657 -36.6462 -36.6462 -36.6242 -17.2000 -17.1848 -17.1836 -17.1836
   -17.1073 -17.1073 -17.0553 -17.0553 -16.9847 -16.9847 -16.9752 -16.9615
    10.9397  11.6698  11.6698  12.0017  12.5182  12.5182  12.7912  12.8088
    12.8088  13.1246  13.7501  13.7501  13.8437  13.9116  13.9116  13.9299
    13.9641  13.9641  14.0233  14.0233  14.1508  14.1923  14.1976  14.1976
    14.4681  14.4681  14.5668  14.7259  14.7259  14.8861  14.8957  14.8957
    15.0778  15.1443  15.6208  15.6208  15.6364  15.8328  15.8328  15.9812
    16.3992  16.3992  16.6346  16.6346  16.8026  16.8026  16.9637  16.9964
    16.9964  17.1715  17.2219  17.3766  17.3766  17.4142  17.7694  17.7694
    17.9637  17.9667

          k = 0.3333 0.5774 0.2061 ( 10635 PWs)   bands (ev):

   -70.7597 -70.7463 -70.7378 -70.7378 -70.7098 -70.7013 -70.7013 -70.6964
   -40.8574 -40.8574 -40.8417 -40.8417 -37.0307 -37.0111 -36.9644 -36.9644
   -36.8849 -36.8498 -36.8498 -36.8239 -36.8053 -36.8053 -36.7819 -36.7819
   -36.7377 -36.7377 -36.7080 -36.6915 -36.6818 -36.6818 -36.6722 -36.6722
   -36.6589 -36.6535 -36.6535 -36.6334 -17.1969 -17.1881 -17.1810 -17.1810
   -17.1140 -17.1140 -17.0492 -17.0492 -16.9865 -16.9865 -16.9721 -16.9643
    11.0885  11.6374  11.7752  11.7752  12.3396  12.3396  12.8676  12.8676
    13.1569  13.2224  13.6323  13.7167  13.7167  13.7798  13.9066  13.9066
    13.9419  13.9419  14.0817  14.0817  14.1519  14.1562  14.1615  14.1615
    14.4215  14.4215  14.6470  14.7549  14.7549  14.8154  15.0510  15.0510
    15.2270  15.3354  15.5019  15.5019  15.5570  15.8229  15.9133  15.9133
    16.2298  16.2298  16.6397  16.6397  16.8144  16.8144  16.9591  17.0770
    17.0770  17.0800  17.2529  17.3381  17.3381  17.4032  17.7794  17.7794
    17.9222  17.9222

          k = 0.3333 0.5774-0.3091 ( 10650 PWs)   bands (ev):

   -70.7539 -70.7539 -70.7378 -70.7378 -70.7022 -70.7022 -70.7013 -70.7013
   -40.8575 -40.8575 -40.8417 -40.8417 -37.0221 -37.0221 -36.9647 -36.9647
   -36.8560 -36.8560 -36.8434 -36.8434 -36.8151 -36.8151 -36.7820 -36.7820
   -36.7347 -36.7347 -36.6964 -36.6964 -36.6795 -36.6795 -36.6637 -36.6637
   -36.6636 -36.6636 -36.6469 -36.6469 -17.1926 -17.1926 -17.1796 -17.1796
   -17.1172 -17.1172 -17.0465 -17.0465 -16.9875 -16.9875 -16.9681 -16.9681
    11.3262  11.3262  11.8548  11.8548  12.2335  12.2335  12.8865  12.8865
    13.3464  13.3464  13.5638  13.5638  13.7035  13.7035  13.8850  13.8850
    13.9316  13.9316  14.1271  14.1271  14.1431  14.1431  14.1680  14.1680
    14.3936  14.3936  14.7325  14.7325  14.7349  14.7349  15.1950  15.1950
    15.3788  15.3788  15.4003  15.4003  15.6131  15.6131  15.9443  15.9443
    16.1615  16.1615  16.6377  16.6377  16.8192  16.8192  16.9919  16.9919
    17.1205  17.1205  17.3055  17.3055  17.3417  17.3417  17.7899  17.7899
    17.8947  17.8947

     the Fermi energy is    16.1702 ev

!    total energy              =   -3111.31675584 Ry
     estimated scf accuracy    <          2.7E-09 Ry
     smearing contrib. (-TS)   =       0.00010365 Ry
     internal energy E=F+TS    =   -3111.31685948 Ry

     The total energy is F=E-TS. E is the sum of the following terms:
     one-electron contribution =   -1208.32416746 Ry
     hartree contribution      =     698.26911993 Ry
     xc contribution           =    -349.41383357 Ry
     ewald contribution        =   -1642.60130586 Ry
     one-center paw contrib.   =    -609.24667252 Ry

     convergence has been achieved in  27 iterations

     negative rho (up, down):  3.225E-03 0.000E+00

     Forces acting on atoms (cartesian axes, Ry/au):

     atom    1 type  1   force =    -0.01352153    0.00780666    0.00000000
     atom    2 type  1   force =     0.01352153   -0.00780666    0.00000000
     atom    3 type  1   force =    -0.00000000    0.01561331    0.00000000
     atom    4 type  1   force =     0.01352153    0.00780666    0.00000000
     atom    5 type  1   force =     0.00000000   -0.01561331    0.00000000
     atom    6 type  1   force =    -0.01352153   -0.00780666   -0.00000000
     atom    7 type  1   force =     0.00000000   -0.00000000    0.00000000
     atom    8 type  1   force =     0.00000000   -0.00000000   -0.00000000
     atom    9 type  2   force =     0.00000000   -0.00000000   -0.01097793
     atom   10 type  2   force =     0.00000000   -0.00000000   -0.01097793
     atom   11 type  2   force =     0.00000000    0.00000000    0.01097793
     atom   12 type  2   force =     0.00000000   -0.00000000    0.01097793

     Total force =     0.044099     Total SCF correction =     0.000102


     Computing stress (Cartesian axis) and pressure


     negative rho (up, down):  3.225E-03 0.000E+00
          total   stress  (Ry/bohr**3)                   (kbar)     P=     -163.16
  -0.00119488   0.00000000  -0.00000000         -175.77        0.00       -0.00
   0.00000000  -0.00119488  -0.00000000            0.00     -175.77       -0.00
   0.00000000  -0.00000000  -0.00093761            0.00       -0.00     -137.93


     Writing all to output data dir ./FeAl.save/ :
     XML data file, charge density, pseudopotentials, collected wavefunctions

     init_run     :      3.09s CPU      3.17s WALL (       1 calls)
     electrons    :    155.49s CPU    157.20s WALL (       1 calls)
     forces       :      0.66s CPU      0.66s WALL (       1 calls)
     stress       :      2.44s CPU      2.45s WALL (       1 calls)

     Called by init_run:
     wfcinit      :      2.15s CPU      2.19s WALL (       1 calls)
     potinit      :      0.42s CPU      0.44s WALL (       1 calls)
     hinit0       :      0.42s CPU      0.43s WALL (       1 calls)

     Called by electrons:
     c_bands      :    134.13s CPU    135.48s WALL (      27 calls)
     sum_band     :     15.43s CPU     15.64s WALL (      27 calls)
     v_of_rho     :      0.22s CPU      0.24s WALL (      28 calls)
     newd         :      1.20s CPU      1.21s WALL (      28 calls)
     PAW_pot      :      4.63s CPU      4.68s WALL (      28 calls)
     mix_rho      :      0.05s CPU      0.06s WALL (      27 calls)

     Called by c_bands:
     init_us_2    :      0.86s CPU      0.87s WALL (    1596 calls)
     cegterg      :    129.67s CPU    130.97s WALL (     756 calls)

     Called by *egterg:
     cdiaghg      :     33.57s CPU     33.70s WALL (    2747 calls)
     h_psi        :     64.46s CPU     65.51s WALL (    2775 calls)
     s_psi        :      5.56s CPU      5.58s WALL (    2775 calls)
     g_psi        :      0.27s CPU      0.27s WALL (    1991 calls)

     Called by h_psi:
     h_psi:calbec :      9.40s CPU      9.47s WALL (    2775 calls)
     vloc_psi     :     49.14s CPU     50.10s WALL (    2775 calls)
     add_vuspsi   :      5.66s CPU      5.68s WALL (    2775 calls)

     General routines
     calbec       :     14.95s CPU     15.05s WALL (    4007 calls)
     fft          :      0.51s CPU      0.54s WALL (     387 calls)
     ffts         :      0.26s CPU      0.26s WALL (      55 calls)
     fftw         :     52.41s CPU     53.37s WALL (  484278 calls)
     interpolate  :      0.26s CPU      0.27s WALL (      28 calls)

     Parallel routines

     PWSCF        :    162.38s CPU    170.14s WALL


   This run was terminated on:  14:46:23  27Oct2025            

=------------------------------------------------------------------------------=
   JOB DONE.
=------------------------------------------------------------------------------=
Note: The following floating-point exceptions are signalling: IEEE_UNDERFLOW_FLAG IEEE_DENORMAL
Note: The following floating-point exceptions are signalling: IEEE_UNDERFLOW_FLAG IEEE_DENORMAL
Note: The following floating-point exceptions are signalling: IEEE_UNDERFLOW_FLAG IEEE_DENORMAL
Note: The following floating-point exceptions are signalling: IEEE_UNDERFLOW_FLAG IEEE_DENORMAL
Note: The following floating-point exceptions are signalling: IEEE_UNDERFLOW_FLAG IEEE_DENORMAL
Note: The following floating-point exceptions are signalling: IEEE_UNDERFLOW_FLAG IEEE_DENORMAL
Note: The following floating-point exceptions are signalling: IEEE_UNDERFLOW_FLAG IEEE_DENORMAL
Note: The following floating-point exceptions are signalling: IEEE_UNDERFLOW_FLAG IEEE_DENORMAL
Note: The following floating-point exceptions are signalling: IEEE_UNDERFLOW_FLAG IEEE_DENORMAL
Note: The following floating-point exceptions are signalling: IEEE_UNDERFLOW_FLAG IEEE_DENORMAL
Note: The following floating-point exceptions are signalling: IEEE_UNDERFLOW_FLAG IEEE_DENORMAL
Note: The following floating-point exceptions are signalling: IEEE_UNDERFLOW_FLAG IEEE_DENORMAL
Note: The following floating-point exceptions are signalling: IEEE_UNDERFLOW_FLAG IEEE_DENORMAL
Note: The following floating-point exceptions are signalling: IEEE_UNDERFLOW_FLAG IEEE_DENORMAL
Note: The following floating-point exceptions are signalling: IEEE_UNDERFLOW_FLAG IEEE_DENORMAL
Note: The following floating-point exceptions are signalling: IEEE_UNDERFLOW_FLAG IEEE_DENORMAL
