
     Program PWSCF v.7.4 starts on 27Oct2025 at 14:54: 3 

     This program is part of the open-source Quantum ESPRESSO suite
     for quantum simulation of materials; please cite
         "P. Giannozzi et al., J. Phys.:Condens. Matter 21 395502 (2009);
         "P. Giannozzi et al., J. Phys.:Condens. Matter 29 465901 (2017);
         "P. Giannozzi et al., J. Chem. Phys. 152 154105 (2020);
          URL http://www.quantum-espresso.org", 
     in publications or presentations arising from this work. More details at
     http://www.quantum-espresso.org/quote

     Parallel version (MPI & OpenMP), running on      16 processor cores
     Number of MPI processes:                16
     Threads/MPI process:                     1

     MPI processes distributed on     1 nodes
     228632 MiB available memory on the printing compute node when the environment starts

     Reading input from TiFe2_ecutwfc_convergence/TiFe2_ecut100.in

     Current dimensions of program PWSCF are:
     Max number of different atomic species (ntypx) = 10
     Max number of k-points (npk) =  40000
     Max angular momentum in pseudopotentials (lmaxx) =  4
     file Fe.pbe-spn-kjpaw_psl.0.2.1.UPF: wavefunction(s)  3D renormalized

     IMPORTANT: XC functional enforced from input :
     Exchange-correlation= PBE
                           (   1   4   3   4   0   0   0)
     Any further DFT definition will be discarded
     Please, verify this is what you really want

     Message from routine setup:
     using ibrav=0 with symmetry is DISCOURAGED, use correct ibrav instead

     R & G space division:  proc/nbgrp/npool/nimage =      16
     Subspace diagonalization in iterative solution of the eigenvalue problem:
     a serial algorithm will be used


     Parallelization info
     --------------------
     sticks:   dense  smooth     PW     G-vecs:    dense   smooth      PW
     Min         181     144     40                12689     9076    1320
     Max         182     150     41                12693     9077    1323
     Sum        2905    2335    649               203061   145217   21133

     Using Slab Decomposition



     bravais-lattice index     =            0
     lattice parameter (alat)  =       9.1568  a.u.
     unit-cell volume          =    1075.5644 (a.u.)^3
     number of atoms/cell      =           12
     number of atomic types    =            2
     number of electrons       =       176.00
     number of Kohn-Sham states=          106
     kinetic-energy cutoff     =     100.0000  Ry
     charge density cutoff     =     500.0000  Ry
     scf convergence threshold =      1.0E-08
     mixing beta               =       0.7000
     number of iterations used =            8  plain     mixing
     Exchange-correlation= PBE
                           (   1   4   3   4   0   0   0)

     celldm(1)=   9.156781  celldm(2)=   0.000000  celldm(3)=   0.000000
     celldm(4)=   0.000000  celldm(5)=   0.000000  celldm(6)=   0.000000

     crystal axes: (cart. coord. in units of alat)
               a(1) = (   1.000000   0.000000   0.000000 )  
               a(2) = (  -0.500000   0.866025   0.000000 )  
               a(3) = (   0.000000   0.000000   1.617623 )  

     reciprocal axes: (cart. coord. in units 2 pi/alat)
               b(1) = (  1.000000  0.577350 -0.000000 )  
               b(2) = (  0.000000  1.154701  0.000000 )  
               b(3) = (  0.000000 -0.000000  0.618191 )  


     PseudoPot. # 1 for Fe read from file:
     ./Fe.pbe-spn-kjpaw_psl.0.2.1.UPF
     MD5 check sum: e86618425769142926afa95317d90200
     Pseudo is Projector augmented-wave + core cor, Zval = 16.0
     Generated using "atomic" code by A. Dal Corso  v.5.0.99 svn rev. 10869
     Shape of augmentation charge: PSQ
     Using radial grid of 1191 points,  6 beta functions with: 
                l(1) =   0
                l(2) =   0
                l(3) =   1
                l(4) =   1
                l(5) =   2
                l(6) =   2
     Q(r) pseudized with 0 coefficients 


     PseudoPot. # 2 for Ti read from file:
     ./Ti_pbe_v1.4.uspp.F.UPF
     MD5 check sum: 88a00a6731bd790ddea75d31a80cb452
     Pseudo is Ultrasoft + core correction, Zval = 12.0
     Generated by new atomic code, or converted to UPF format
     Using radial grid of  851 points,  6 beta functions with: 
                l(1) =   0
                l(2) =   0
                l(3) =   1
                l(4) =   1
                l(5) =   2
                l(6) =   2
     Q(r) pseudized with  6 coefficients,  rinner =    1.000   1.000   1.000
                                                       1.000   1.000

     atomic species   valence    mass     pseudopotential
     Fe               16.00    55.84500     Fe( 1.00)
     Ti               12.00    47.86700     Ti( 1.00)

     24 Sym. Ops., with inversion, found (12 have fractional translation)



   Cartesian axes

     site n.     atom                  positions (alat units)
         1        Fe     tau(   1) = (   0.7465670   0.1463196   0.4044057  )
         2        Fe     tau(   2) = (  -0.2465670   0.7197058   1.2132171  )
         3        Fe     tau(   3) = (  -0.0000000   0.2926392   1.2132171  )
         4        Fe     tau(   4) = (   0.2534330   0.1463196   0.4044057  )
         5        Fe     tau(   5) = (   0.5000000   0.5733862   0.4044057  )
         6        Fe     tau(   6) = (   0.2465670   0.7197058   1.2132171  )
         7        Fe     tau(   7) = (   0.0000000   0.0000000   0.0000000  )
         8        Fe     tau(   8) = (   0.0000000   0.0000000   0.8088114  )
         9        Ti     tau(   9) = (   0.5000000   0.2886751   1.5200090  )
        10        Ti     tau(  10) = (  -0.0000000   0.5773503   0.7111976  )
        11        Ti     tau(  11) = (  -0.0000000   0.5773503   0.0976138  )
        12        Ti     tau(  12) = (   0.5000000   0.2886751   0.9064252  )

     number of k points=    28  Marzari-Vanderbilt smearing, width (Ry)=  0.0050
                       cart. coord. in units 2pi/alat
        k(    1) = (   0.0000000   0.0000000   0.0000000), wk =   0.0092593
        k(    2) = (   0.0000000   0.0000000   0.1030318), wk =   0.0185185
        k(    3) = (   0.0000000   0.0000000   0.2060637), wk =   0.0185185
        k(    4) = (   0.0000000   0.0000000  -0.3090955), wk =   0.0092593
        k(    5) = (   0.0000000   0.1924501   0.0000000), wk =   0.0555556
        k(    6) = (   0.0000000   0.1924501   0.1030318), wk =   0.1111111
        k(    7) = (   0.0000000   0.1924501   0.2060637), wk =   0.1111111
        k(    8) = (   0.0000000   0.1924501  -0.3090955), wk =   0.0555556
        k(    9) = (   0.0000000   0.3849002   0.0000000), wk =   0.0555556
        k(   10) = (   0.0000000   0.3849002   0.1030318), wk =   0.1111111
        k(   11) = (   0.0000000   0.3849002   0.2060637), wk =   0.1111111
        k(   12) = (   0.0000000   0.3849002  -0.3090955), wk =   0.0555556
        k(   13) = (   0.0000000  -0.5773503   0.0000000), wk =   0.0277778
        k(   14) = (   0.0000000  -0.5773503   0.1030318), wk =   0.0555556
        k(   15) = (   0.0000000  -0.5773503   0.2060637), wk =   0.0555556
        k(   16) = (   0.0000000  -0.5773503  -0.3090955), wk =   0.0277778
        k(   17) = (   0.1666667   0.2886751   0.0000000), wk =   0.0555556
        k(   18) = (   0.1666667   0.2886751   0.1030318), wk =   0.1111111
        k(   19) = (   0.1666667   0.2886751   0.2060637), wk =   0.1111111
        k(   20) = (   0.1666667   0.2886751  -0.3090955), wk =   0.0555556
        k(   21) = (   0.1666667   0.4811252   0.0000000), wk =   0.1111111
        k(   22) = (   0.1666667   0.4811252   0.1030318), wk =   0.2222222
        k(   23) = (   0.1666667   0.4811252   0.2060637), wk =   0.2222222
        k(   24) = (   0.1666667   0.4811252  -0.3090955), wk =   0.1111111
        k(   25) = (   0.3333333   0.5773503   0.0000000), wk =   0.0185185
        k(   26) = (   0.3333333   0.5773503   0.1030318), wk =   0.0370370
        k(   27) = (   0.3333333   0.5773503   0.2060637), wk =   0.0370370
        k(   28) = (   0.3333333   0.5773503  -0.3090955), wk =   0.0185185

     Dense  grid:   203061 G-vectors     FFT dimensions: (  72,  72, 108)

     Smooth grid:   145217 G-vectors     FFT dimensions: (  60,  60,  96)

     Estimated max dynamical RAM per process >     109.11 MB

     Estimated total dynamical RAM >       1.70 GB

     Check: negative core charge=   -0.000062

     Initial potential from superposition of free atoms

     starting charge     171.9963, renormalised to     176.0000

     negative rho (up, down):  5.291E-03 0.000E+00
     Starting wfcs are  144 randomized atomic wfcs
     Checking if some PAW data can be deallocated... 

     total cpu time spent up to now is        5.0 secs

     per-process dynamical memory:   181.5 Mb

     Self-consistent Calculation

     iteration #  1     ecut=   100.00 Ry     beta= 0.70
     Davidson diagonalization with overlap
     ethr =  1.00E-02,  avg # of iterations =  2.0

     negative rho (up, down):  9.201E-04 0.000E+00

     total cpu time spent up to now is       13.2 secs

     total energy              =   -3017.03021434 Ry
     estimated scf accuracy    <     116.54611683 Ry

     iteration #  2     ecut=   100.00 Ry     beta= 0.70
     Davidson diagonalization with overlap
     ethr =  1.00E-02,  avg # of iterations =  6.7

     total cpu time spent up to now is       30.1 secs

     total energy              =   -3075.97872286 Ry
     estimated scf accuracy    <     699.70695723 Ry

     iteration #  3     ecut=   100.00 Ry     beta= 0.70
     Davidson diagonalization with overlap
     ethr =  1.00E-02,  avg # of iterations =  5.2

     total cpu time spent up to now is       43.1 secs

     total energy              =   -3120.92002727 Ry
     estimated scf accuracy    <      91.44770191 Ry

     iteration #  4     ecut=   100.00 Ry     beta= 0.70
     Davidson diagonalization with overlap
     ethr =  1.00E-02,  avg # of iterations =  1.3

     total cpu time spent up to now is       49.8 secs

     total energy              =   -3116.46775594 Ry
     estimated scf accuracy    <      54.33663427 Ry

     iteration #  5     ecut=   100.00 Ry     beta= 0.70
     Davidson diagonalization with overlap
     ethr =  1.00E-02,  avg # of iterations =  1.8

     total cpu time spent up to now is       56.7 secs

     total energy              =   -3115.18895164 Ry
     estimated scf accuracy    <      41.67290444 Ry

     iteration #  6     ecut=   100.00 Ry     beta= 0.70
     Davidson diagonalization with overlap
     ethr =  1.00E-02,  avg # of iterations =  1.0

     negative rho (up, down):  4.566E-04 0.000E+00

     total cpu time spent up to now is       63.2 secs

     total energy              =   -3113.66717403 Ry
     estimated scf accuracy    <      26.00798892 Ry

     iteration #  7     ecut=   100.00 Ry     beta= 0.70
     Davidson diagonalization with overlap
     ethr =  1.00E-02,  avg # of iterations =  1.0

     negative rho (up, down):  1.303E-03 0.000E+00

     total cpu time spent up to now is       69.7 secs

     total energy              =   -3111.34232346 Ry
     estimated scf accuracy    <      18.31098740 Ry

     iteration #  8     ecut=   100.00 Ry     beta= 0.70
     Davidson diagonalization with overlap
     ethr =  1.00E-02,  avg # of iterations =  1.0

     negative rho (up, down):  1.494E-03 0.000E+00

     total cpu time spent up to now is       76.1 secs

     total energy              =   -3111.48372654 Ry
     estimated scf accuracy    <       6.14359794 Ry

     iteration #  9     ecut=   100.00 Ry     beta= 0.70
     Davidson diagonalization with overlap
     ethr =  3.49E-03,  avg # of iterations =  1.8

     negative rho (up, down):  1.806E-03 0.000E+00

     total cpu time spent up to now is       83.1 secs

     total energy              =   -3111.24231991 Ry
     estimated scf accuracy    <       4.36532790 Ry

     iteration # 10     ecut=   100.00 Ry     beta= 0.70
     Davidson diagonalization with overlap
     ethr =  2.48E-03,  avg # of iterations =  2.2

     negative rho (up, down):  4.438E-03 0.000E+00

     total cpu time spent up to now is       90.4 secs

     total energy              =   -3110.91760028 Ry
     estimated scf accuracy    <       1.52517860 Ry

     iteration # 11     ecut=   100.00 Ry     beta= 0.70
     Davidson diagonalization with overlap
     ethr =  8.67E-04,  avg # of iterations =  5.4

     negative rho (up, down):  2.496E-03 0.000E+00

     total cpu time spent up to now is      102.0 secs

     total energy              =   -3111.29228324 Ry
     estimated scf accuracy    <       7.09408869 Ry

     iteration # 12     ecut=   100.00 Ry     beta= 0.70
     Davidson diagonalization with overlap
     ethr =  8.67E-04,  avg # of iterations =  1.2

     negative rho (up, down):  1.727E-03 0.000E+00

     total cpu time spent up to now is      108.6 secs

     total energy              =   -3111.09506942 Ry
     estimated scf accuracy    <       1.52736451 Ry

     iteration # 13     ecut=   100.00 Ry     beta= 0.70
     Davidson diagonalization with overlap
     ethr =  8.67E-04,  avg # of iterations =  3.4

     negative rho (up, down):  1.951E-03 0.000E+00

     total cpu time spent up to now is      117.0 secs

     total energy              =   -3111.39799110 Ry
     estimated scf accuracy    <       1.39819701 Ry

     iteration # 14     ecut=   100.00 Ry     beta= 0.70
     Davidson diagonalization with overlap
     ethr =  7.94E-04,  avg # of iterations =  1.0

     negative rho (up, down):  2.087E-03 0.000E+00

     total cpu time spent up to now is      123.5 secs

     total energy              =   -3111.33525960 Ry
     estimated scf accuracy    <       0.85685404 Ry

     iteration # 15     ecut=   100.00 Ry     beta= 0.70
     Davidson diagonalization with overlap
     ethr =  4.87E-04,  avg # of iterations =  1.2

     negative rho (up, down):  2.108E-03 0.000E+00

     total cpu time spent up to now is      130.0 secs

     total energy              =   -3111.35135741 Ry
     estimated scf accuracy    <       0.13056724 Ry

     iteration # 16     ecut=   100.00 Ry     beta= 0.70
     Davidson diagonalization with overlap
     ethr =  7.42E-05,  avg # of iterations =  2.3

     negative rho (up, down):  2.124E-03 0.000E+00

     total cpu time spent up to now is      137.1 secs

     total energy              =   -3111.35129950 Ry
     estimated scf accuracy    <       0.07403517 Ry

     iteration # 17     ecut=   100.00 Ry     beta= 0.70
     Davidson diagonalization with overlap
     ethr =  4.21E-05,  avg # of iterations =  1.4

     negative rho (up, down):  2.158E-03 0.000E+00

     total cpu time spent up to now is      143.8 secs

     total energy              =   -3111.34728281 Ry
     estimated scf accuracy    <       0.06408346 Ry

     iteration # 18     ecut=   100.00 Ry     beta= 0.70
     Davidson diagonalization with overlap
     ethr =  3.64E-05,  avg # of iterations =  1.8

     negative rho (up, down):  2.187E-03 0.000E+00

     total cpu time spent up to now is      150.7 secs

     total energy              =   -3111.34667983 Ry
     estimated scf accuracy    <       0.01665825 Ry

     iteration # 19     ecut=   100.00 Ry     beta= 0.70
     Davidson diagonalization with overlap
     ethr =  9.46E-06,  avg # of iterations =  6.5

     negative rho (up, down):  2.187E-03 0.000E+00

     total cpu time spent up to now is      160.1 secs

     total energy              =   -3111.34816845 Ry
     estimated scf accuracy    <       0.00002823 Ry

     iteration # 20     ecut=   100.00 Ry     beta= 0.70
     Davidson diagonalization with overlap
     ethr =  1.60E-08,  avg # of iterations =  9.9

     negative rho (up, down):  2.188E-03 0.000E+00

     total cpu time spent up to now is      184.2 secs

     total energy              =   -3111.34840403 Ry
     estimated scf accuracy    <       0.00006432 Ry

     iteration # 21     ecut=   100.00 Ry     beta= 0.70
     Davidson diagonalization with overlap
     ethr =  1.60E-08,  avg # of iterations =  1.3

     negative rho (up, down):  2.189E-03 0.000E+00

     total cpu time spent up to now is      190.9 secs

     total energy              =   -3111.34840588 Ry
     estimated scf accuracy    <       0.00001869 Ry

     iteration # 22     ecut=   100.00 Ry     beta= 0.70
     Davidson diagonalization with overlap
     ethr =  1.06E-08,  avg # of iterations =  1.0

     negative rho (up, down):  2.190E-03 0.000E+00

     total cpu time spent up to now is      197.3 secs

     total energy              =   -3111.34840728 Ry
     estimated scf accuracy    <       0.00001785 Ry

     iteration # 23     ecut=   100.00 Ry     beta= 0.70
     Davidson diagonalization with overlap
     ethr =  1.01E-08,  avg # of iterations =  1.0

     negative rho (up, down):  2.189E-03 0.000E+00

     total cpu time spent up to now is      203.8 secs

     total energy              =   -3111.34840441 Ry
     estimated scf accuracy    <       0.00003298 Ry

     iteration # 24     ecut=   100.00 Ry     beta= 0.70
     Davidson diagonalization with overlap
     ethr =  1.01E-08,  avg # of iterations =  1.2

     negative rho (up, down):  2.189E-03 0.000E+00

     total cpu time spent up to now is      210.4 secs

     total energy              =   -3111.34840524 Ry
     estimated scf accuracy    <       0.00000185 Ry

     iteration # 25     ecut=   100.00 Ry     beta= 0.70
     Davidson diagonalization with overlap
     ethr =  1.05E-09,  avg # of iterations =  4.6

     negative rho (up, down):  2.189E-03 0.000E+00

     total cpu time spent up to now is      219.8 secs

     total energy              =   -3111.34840562 Ry
     estimated scf accuracy    <       0.00000072 Ry

     iteration # 26     ecut=   100.00 Ry     beta= 0.70
     Davidson diagonalization with overlap
     ethr =  4.09E-10,  avg # of iterations =  1.6

     negative rho (up, down):  2.189E-03 0.000E+00

     total cpu time spent up to now is      226.7 secs

     total energy              =   -3111.34840561 Ry
     estimated scf accuracy    <       0.00000029 Ry

     iteration # 27     ecut=   100.00 Ry     beta= 0.70
     Davidson diagonalization with overlap
     ethr =  1.64E-10,  avg # of iterations =  2.0

     negative rho (up, down):  2.189E-03 0.000E+00

     total cpu time spent up to now is      233.9 secs

     total energy              =   -3111.34840563 Ry
     estimated scf accuracy    <       0.00000002 Ry

     iteration # 28     ecut=   100.00 Ry     beta= 0.70
     Davidson diagonalization with overlap
     ethr =  9.06E-12,  avg # of iterations =  5.8

     negative rho (up, down):  2.189E-03 0.000E+00

     total cpu time spent up to now is      247.1 secs

     End of self-consistent calculation

          k = 0.0000 0.0000 0.0000 ( 18257 PWs)   bands (ev):

   -70.7851 -70.7624 -70.7266 -70.7038 -70.6993 -70.6993 -70.6993 -70.6993
   -40.8829 -40.8687 -40.8334 -40.8181 -37.1892 -37.1194 -37.0103 -36.8915
   -36.8915 -36.8714 -36.8714 -36.8575 -36.8575 -36.7981 -36.7868 -36.7459
   -36.7459 -36.7431 -36.7431 -36.6448 -36.6426 -36.6426 -36.6415 -36.6415
   -36.6327 -36.6327 -36.6198 -36.6198 -17.1749 -17.1749 -17.1609 -17.1609
   -17.1596 -17.1579 -17.0190 -17.0160 -17.0016 -17.0016 -16.9870 -16.9870
     8.6181  10.6482  11.4219  12.0193  12.5093  12.6098  12.7688  12.7688
    12.9891  12.9891  13.1996  13.2942  13.3858  13.3858  13.8276  13.8276
    13.9659  13.9659  14.2079  14.2945  14.2945  14.3195  14.3195  14.7766
    14.7766  14.9089  15.3897  15.3897  15.5088  15.5088  15.8283  15.9122
    15.9122  15.9150  15.9150  16.0614  16.0643  16.0643  16.0717  16.1330
    16.1601  16.1601  16.2315  16.2772  16.2772  16.7295  16.7295  16.7455
    16.9885  16.9885  17.2876  17.2876  17.4914  17.4914  17.5144  17.5147
    17.7866  17.7866

          k = 0.0000 0.0000 0.1030 ( 18221 PWs)   bands (ev):

   -70.7839 -70.7647 -70.7243 -70.7049 -70.6993 -70.6993 -70.6993 -70.6993
   -40.8821 -40.8700 -40.8320 -40.8189 -37.1863 -37.1280 -36.9970 -36.8910
   -36.8910 -36.8760 -36.8760 -36.8497 -36.8497 -36.8367 -36.7695 -36.7695
   -36.7512 -36.7199 -36.7199 -36.6497 -36.6497 -36.6494 -36.6375 -36.6375
   -36.6328 -36.6328 -36.6198 -36.6198 -17.1740 -17.1740 -17.1619 -17.1619
   -17.1592 -17.1578 -17.0191 -17.0164 -17.0006 -17.0006 -16.9880 -16.9880
     8.6949  10.2982  11.7131  12.0199  12.4085  12.7821  12.7821  12.7997
    12.9714  12.9714  13.0477  13.3957  13.4124  13.4124  13.8045  13.8045
    13.9486  13.9486  14.1836  14.1836  14.2748  14.4636  14.4636  14.8324
    14.8324  14.9436  15.3160  15.3160  15.4204  15.4204  15.7047  15.8486
    15.9287  15.9287  16.0205  16.0205  16.0561  16.0561  16.0758  16.1288
    16.1648  16.1648  16.2169  16.2169  16.3678  16.7978  16.7978  16.9625
    16.9790  16.9790  17.2797  17.2797  17.4938  17.4938  17.5144  17.5147
    17.7701  17.7701

          k = 0.0000 0.0000 0.2061 ( 18185 PWs)   bands (ev):

   -70.7807 -70.7700 -70.7189 -70.7081 -70.6993 -70.6993 -70.6993 -70.6993
   -40.8801 -40.8732 -40.8286 -40.8212 -37.1775 -37.1458 -36.9654 -36.8893
   -36.8893 -36.8820 -36.8820 -36.8815 -36.8346 -36.8346 -36.7936 -36.7936
   -36.7152 -36.6971 -36.6971 -36.6632 -36.6613 -36.6613 -36.6351 -36.6351
   -36.6331 -36.6331 -36.6198 -36.6198 -17.1716 -17.1716 -17.1646 -17.1646
   -17.1584 -17.1576 -17.0190 -17.0175 -16.9978 -16.9978 -16.9905 -16.9905
     8.9215   9.7626  11.9827  12.0216  12.4587  12.8189  12.8189  12.8590
    12.9267  12.9267  13.0618  13.4128  13.4854  13.4854  13.7125  13.7125
    13.9591  13.9591  14.0866  14.0866  14.5002  14.6544  14.6544  14.9413
    14.9413  15.0287  15.1528  15.1528  15.2782  15.2782  15.4663  15.4916
    15.9609  15.9609  16.0262  16.0262  16.0816  16.0816  16.0869  16.1175
    16.1201  16.1201  16.3272  16.3272  16.6106  16.8006  16.8006  17.0144
    17.0144  17.2418  17.2418  17.3938  17.5145  17.5444  17.5444  17.5629
    17.7192  17.7192

          k = 0.0000 0.0000-0.3091 ( 18180 PWs)   bands (ev):

   -70.7758 -70.7758 -70.7131 -70.7131 -70.6993 -70.6993 -70.6993 -70.6993
   -40.8769 -40.8769 -40.8246 -40.8246 -37.1636 -37.1636 -36.9254 -36.9254
   -36.8865 -36.8865 -36.8865 -36.8865 -36.8156 -36.8156 -36.8156 -36.8156
   -36.6854 -36.6854 -36.6772 -36.6772 -36.6772 -36.6772 -36.6338 -36.6338
   -36.6338 -36.6338 -36.6198 -36.6198 -17.1682 -17.1682 -17.1682 -17.1682
   -17.1578 -17.1578 -17.0185 -17.0185 -16.9941 -16.9941 -16.9941 -16.9941
     9.2855   9.2855  12.0232  12.0232  12.6654  12.6654  12.8711  12.8711
    12.8711  12.8711  13.2884  13.2884  13.5917  13.5917  13.5917  13.5917
    14.0106  14.0106  14.0106  14.0106  14.8638  14.8638  14.8638  14.8638
    14.8725  14.8725  15.1487  15.1487  15.1487  15.1487  15.3172  15.3172
    16.0015  16.0015  16.0015  16.0015  16.0681  16.0681  16.0681  16.0681
    16.1022  16.1022  16.5882  16.5882  16.5882  16.5882  16.9838  16.9838
    17.1492  17.1492  17.1492  17.1492  17.5145  17.5145  17.6367  17.6367
    17.6367  17.6367

          k = 0.0000 0.1925 0.0000 ( 18205 PWs)   bands (ev):

   -70.7815 -70.7587 -70.7266 -70.7121 -70.7030 -70.6994 -70.6993 -70.6946
   -40.8801 -40.8658 -40.8364 -40.8210 -37.1676 -37.0981 -37.0078 -36.8903
   -36.8777 -36.8768 -36.8615 -36.8576 -36.8561 -36.7915 -36.7868 -36.7531
   -36.7459 -36.7439 -36.7433 -36.6593 -36.6539 -36.6502 -36.6458 -36.6426
   -36.6411 -36.6397 -36.6266 -36.6253 -17.1893 -17.1794 -17.1649 -17.1617
   -17.1566 -17.1370 -17.0353 -17.0119 -17.0069 -16.9975 -16.9828 -16.9793
     8.8841  10.8511  11.6001  12.1308  12.5492  12.6043  12.7145  12.8109
    12.9007  13.1533  13.1569  13.3965  13.4401  13.4683  13.7825  13.8808
    13.9664  14.0694  14.2449  14.2830  14.2955  14.3208  14.3668  14.6306
    14.6989  14.7110  15.0244  15.2179  15.2243  15.2793  15.4969  15.5676
    15.7639  15.8574  15.8801  15.9581  16.0034  16.0689  16.1148  16.1934
    16.2180  16.3008  16.3276  16.3564  16.4912  16.6275  16.8020  16.8956
    16.9059  17.0134  17.2899  17.3011  17.3351  17.5244  17.5431  17.5480
    17.5776  17.9179

          k = 0.0000 0.1925 0.1030 ( 18182 PWs)   bands (ev):

   -70.7804 -70.7611 -70.7245 -70.7125 -70.7027 -70.6994 -70.6993 -70.6953
   -40.8794 -40.8672 -40.8350 -40.8218 -37.1648 -37.1073 -36.9943 -36.8899
   -36.8827 -36.8773 -36.8649 -36.8535 -36.8457 -36.8290 -36.7737 -36.7690
   -36.7508 -36.7244 -36.7206 -36.6608 -36.6551 -36.6540 -36.6472 -36.6425
   -36.6421 -36.6411 -36.6264 -36.6253 -17.1878 -17.1784 -17.1659 -17.1652
   -17.1537 -17.1379 -17.0343 -17.0159 -17.0026 -16.9964 -16.9838 -16.9806
     8.9590  10.5154  11.8761  12.1318  12.4546  12.6573  12.7814  12.8300
    12.9366  13.1225  13.1315  13.3678  13.4711  13.5014  13.7770  13.8659
    13.9374  14.0357  14.1368  14.2181  14.3256  14.4436  14.5019  14.6910
    14.7331  14.7601  15.0256  15.1657  15.1831  15.2541  15.5069  15.5559
    15.6799  15.8074  15.8583  15.9276  16.0073  16.0374  16.1197  16.1697
    16.2039  16.2907  16.3056  16.3994  16.4989  16.6848  16.7881  16.9075
    16.9605  17.0951  17.2836  17.3228  17.3349  17.4697  17.5459  17.5722
    17.6248  17.8936

          k = 0.0000 0.1925 0.2061 ( 18158 PWs)   bands (ev):

   -70.7772 -70.7665 -70.7202 -70.7137 -70.7016 -70.6993 -70.6993 -70.6973
   -40.8774 -40.8705 -40.8314 -40.8240 -37.1564 -37.1254 -36.9639 -36.8984
   -36.8861 -36.8762 -36.8703 -36.8637 -36.8382 -36.8312 -36.7973 -36.7922
   -36.7179 -36.7042 -36.6983 -36.6664 -36.6640 -36.6620 -36.6492 -36.6472
   -36.6415 -36.6412 -36.6260 -36.6254 -17.1836 -17.1759 -17.1711 -17.1687
   -17.1492 -17.1406 -17.0314 -17.0216 -16.9962 -16.9936 -16.9863 -16.9843
     9.1799   9.9977  12.1190  12.1393  12.4829  12.6843  12.8040  12.8838
    13.0264  13.0492  13.1141  13.3679  13.5195  13.5513  13.7016  13.7868
    13.9482  14.0179  14.0592  14.1258  14.4503  14.6549  14.6747  14.7862
    14.8348  14.8404  14.9913  15.0778  15.0960  15.1738  15.3500  15.4356
    15.6717  15.8069  15.8569  15.8940  15.9202  16.0235  16.0555  16.0961
    16.1996  16.2948  16.3281  16.5050  16.5580  16.6870  16.7351  16.8215
    17.0749  17.2455  17.2653  17.3441  17.3933  17.5127  17.5392  17.6170
    17.6230  17.8244

          k = 0.0000 0.1925-0.3091 ( 18170 PWs)   bands (ev):

   -70.7723 -70.7723 -70.7162 -70.7162 -70.6997 -70.6997 -70.6993 -70.6993
   -40.8742 -40.8742 -40.8275 -40.8275 -37.1428 -37.1428 -36.9280 -36.9280
   -36.8804 -36.8804 -36.8739 -36.8739 -36.8192 -36.8192 -36.8132 -36.8132
   -36.6968 -36.6968 -36.6791 -36.6791 -36.6716 -36.6716 -36.6492 -36.6492
   -36.6413 -36.6413 -36.6257 -36.6257 -17.1777 -17.1777 -17.1724 -17.1724
   -17.1445 -17.1445 -17.0270 -17.0270 -16.9899 -16.9899 -16.9898 -16.9898
     9.5344   9.5344  12.1427  12.1427  12.6263  12.6263  12.8928  12.8928
    12.9622  12.9622  13.2870  13.2870  13.5873  13.5873  13.6640  13.6640
    14.0012  14.0012  14.0568  14.0568  14.6726  14.6726  14.8192  14.8192
    14.8847  14.8847  14.9554  14.9554  15.0953  15.0953  15.2751  15.2751
    15.7861  15.7861  15.8460  15.8460  15.9253  15.9253  16.0542  16.0542
    16.2484  16.2484  16.4874  16.4874  16.6497  16.6497  16.6864  16.6864
    17.1773  17.1773  17.3496  17.3496  17.4719  17.4719  17.5383  17.5383
    17.7229  17.7229

          k = 0.0000 0.3849 0.0000 ( 18169 PWs)   bands (ev):

   -70.7728 -70.7495 -70.7266 -70.7243 -70.7122 -70.6994 -70.6993 -70.6912
   -40.8730 -40.8581 -40.8442 -40.8287 -37.1156 -37.0470 -37.0025 -36.9058
   -36.8752 -36.8677 -36.8577 -36.8435 -36.8154 -36.7869 -36.7820 -36.7634
   -36.7474 -36.7459 -36.7442 -36.7150 -36.6871 -36.6864 -36.6730 -36.6526
   -36.6425 -36.6312 -36.6309 -36.6273 -17.1981 -17.1877 -17.1722 -17.1707
   -17.1466 -17.1092 -17.0608 -17.0186 -17.0025 -16.9898 -16.9749 -16.9734
     9.6325  11.3554  12.0193  12.0472  12.4031  12.5949  12.6509  12.9360
    13.0025  13.0737  13.5554  13.5702  13.5910  13.6373  13.7329  13.9215
    14.0026  14.1421  14.2445  14.2783  14.3263  14.3687  14.4109  14.4432
    14.4941  14.5406  14.5457  14.7692  14.7846  14.8847  14.9703  15.0732
    15.0978  15.3994  15.7133  15.9944  16.0850  16.1408  16.1490  16.1937
    16.2037  16.3324  16.4116  16.6269  16.6406  16.7403  16.7451  16.8450
    16.8554  17.0224  17.0267  17.3384  17.3933  17.6190  17.6756  17.6921
    17.7357  18.2395

          k = 0.0000 0.3849 0.1030 ( 18165 PWs)   bands (ev):

   -70.7717 -70.7520 -70.7260 -70.7243 -70.7104 -70.6994 -70.6993 -70.6923
   -40.8724 -40.8600 -40.8423 -40.8294 -37.1131 -37.0587 -36.9880 -36.9087
   -36.8777 -36.8596 -36.8562 -36.8441 -36.8143 -36.8139 -36.7834 -36.7658
   -36.7544 -36.7356 -36.7246 -36.7118 -36.6877 -36.6830 -36.6721 -36.6557
   -36.6457 -36.6347 -36.6301 -36.6274 -17.1962 -17.1867 -17.1733 -17.1722
   -17.1453 -17.1134 -17.0568 -17.0216 -16.9995 -16.9887 -16.9759 -16.9750
     9.7012  11.0875  11.9790  12.3215  12.3566  12.6117  12.6794  12.9395
    12.9652  13.1412  13.4632  13.4889  13.6571  13.7148  13.7400  13.9079
    13.9911  14.0984  14.2072  14.2737  14.2972  14.3028  14.3892  14.4842
    14.5475  14.5947  14.6572  14.7713  14.7962  14.9434  14.9705  15.0514
    15.1204  15.4183  15.7132  15.8938  16.0200  16.0605  16.1020  16.1554
    16.2138  16.3776  16.3911  16.6339  16.6484  16.7108  16.7310  16.8468
    16.8790  17.0679  17.1729  17.2892  17.3714  17.4875  17.6483  17.7187
    17.9665  18.1945

          k = 0.0000 0.3849 0.2061 ( 18168 PWs)   bands (ev):

   -70.7685 -70.7575 -70.7251 -70.7244 -70.7057 -70.6994 -70.6993 -70.6954
   -40.8705 -40.8638 -40.8384 -40.8314 -37.1057 -37.0773 -36.9618 -36.9184
   -36.8755 -36.8527 -36.8469 -36.8457 -36.8411 -36.8088 -36.8048 -36.7844
   -36.7382 -36.7287 -36.7071 -36.6979 -36.6899 -36.6730 -36.6690 -36.6649
   -36.6534 -36.6445 -36.6289 -36.6276 -17.1911 -17.1840 -17.1770 -17.1763
   -17.1406 -17.1225 -17.0477 -17.0285 -16.9932 -16.9858 -16.9794 -16.9785
     9.9031  10.6390  12.0319  12.2466  12.5907  12.6559  12.7450  12.8918
    13.0489  13.1966  13.3230  13.3706  13.7423  13.7519  13.8044  13.8942
    13.9406  14.0405  14.1781  14.1928  14.2407  14.3203  14.4501  14.5267
    14.5803  14.6203  14.7193  14.8450  14.8534  14.9651  14.9965  15.0487
    15.2566  15.5000  15.6960  15.7641  15.8560  15.9318  15.9507  16.0064
    16.2571  16.3517  16.4408  16.6247  16.6823  16.7009  16.7096  16.8478
    16.9471  17.1321  17.1697  17.3079  17.3801  17.5171  17.6421  17.8155
    17.9862  18.0880

          k = 0.0000 0.3849-0.3091 ( 18162 PWs)   bands (ev):

   -70.7635 -70.7635 -70.7246 -70.7246 -70.7002 -70.7002 -70.6994 -70.6994
   -40.8675 -40.8675 -40.8345 -40.8345 -37.0936 -37.0936 -36.9365 -36.9365
   -36.8649 -36.8649 -36.8487 -36.8487 -36.8257 -36.8257 -36.7991 -36.7991
   -36.7305 -36.7304 -36.6955 -36.6955 -36.6797 -36.6797 -36.6624 -36.6624
   -36.6585 -36.6585 -36.6281 -36.6281 -17.1840 -17.1840 -17.1802 -17.1802
   -17.1325 -17.1325 -17.0376 -17.0376 -16.9859 -16.9859 -16.9821 -16.9821
    10.2246  10.2246  12.1275  12.1275  12.6761  12.6761  12.8350  12.8350
    13.1751  13.1751  13.2655  13.2655  13.7747  13.7747  13.8436  13.8436
    13.9793  13.9793  14.1941  14.1941  14.2490  14.2490  14.5088  14.5088
    14.6019  14.6019  14.7876  14.7876  14.9530  14.9530  15.0262  15.0262
    15.5127  15.5127  15.6593  15.6593  15.7962  15.7962  15.8966  15.8966
    16.3157  16.3157  16.5424  16.5424  16.6595  16.6595  16.7977  16.7977
    17.0506  17.0506  17.2133  17.2133  17.5385  17.5385  17.7513  17.7513
    17.9565  17.9565

          k = 0.0000-0.5774 0.0000 ( 18152 PWs)   bands (ev):

   -70.7668 -70.7424 -70.7314 -70.7266 -70.7194 -70.6994 -70.6993 -70.6901
   -40.8672 -40.8520 -40.8504 -40.8348 -37.0816 -37.0110 -36.9998 -36.9319
   -36.8702 -36.8618 -36.8577 -36.8193 -36.7869 -36.7822 -36.7773 -36.7634
   -36.7622 -36.7459 -36.7459 -36.7446 -36.7247 -36.7006 -36.6955 -36.6565
   -36.6425 -36.6316 -36.6275 -36.6275 -17.1992 -17.1916 -17.1764 -17.1757
   -17.1401 -17.0963 -17.0736 -17.0256 -16.9968 -16.9861 -16.9729 -16.9712
    10.4819  11.0623  11.9977  12.1841  12.3531  12.6471  12.8051  12.8782
    13.0158  13.1966  13.6211  13.6454  13.7047  13.9001  13.9583  13.9648
    13.9850  14.0207  14.1168  14.2844  14.3320  14.3885  14.3917  14.4048
    14.4443  14.4821  14.5000  14.5411  14.5433  14.5591  14.6851  14.7424
    14.7735  15.0595  15.7522  16.0525  16.0683  16.1196  16.1488  16.2209
    16.2496  16.2914  16.3051  16.5641  16.6440  16.8297  16.9056  16.9577
    17.0320  17.0595  17.1284  17.1489  17.4126  17.5385  17.5624  17.6732
    17.8529  18.2043

          k = 0.0000-0.5774 0.1030 ( 18132 PWs)   bands (ev):

   -70.7656 -70.7449 -70.7313 -70.7288 -70.7147 -70.6994 -70.6993 -70.6913
   -40.8667 -40.8555 -40.8468 -40.8353 -37.0794 -37.0279 -36.9816 -36.9329
   -36.8714 -36.8554 -36.8552 -36.8220 -36.8047 -36.7890 -36.7769 -36.7633
   -36.7622 -36.7576 -36.7355 -36.7290 -36.7249 -36.6928 -36.6914 -36.6597
   -36.6461 -36.6310 -36.6306 -36.6276 -17.1973 -17.1906 -17.1769 -17.1769
   -17.1398 -17.1045 -17.0655 -17.0270 -16.9954 -16.9851 -16.9744 -16.9721
    10.5382  11.1043  11.7540  12.0847  12.5540  12.6622  12.7925  12.8779
    13.0508  13.2031  13.5851  13.6419  13.6978  13.9355  13.9557  13.9780
    14.0035  14.0037  14.0831  14.2110  14.2861  14.3653  14.3995  14.4133
    14.4249  14.4428  14.4915  14.5179  14.6502  14.6699  14.6822  14.7604
    14.8800  15.1275  15.7529  15.9756  16.0020  16.0921  16.1148  16.1397
    16.2073  16.2106  16.4866  16.6370  16.6874  16.7121  16.8026  16.8624
    16.9912  17.1628  17.1948  17.2786  17.3388  17.5004  17.7092  17.7420
    17.8449  18.1937

          k = 0.0000-0.5774 0.2061 ( 18146 PWs)   bands (ev):

   -70.7623 -70.7507 -70.7312 -70.7304 -70.7073 -70.6994 -70.6993 -70.6948
   -40.8651 -40.8594 -40.8429 -40.8369 -37.0727 -37.0465 -36.9605 -36.9365
   -36.8677 -36.8488 -36.8419 -36.8316 -36.8294 -36.8062 -36.7755 -36.7668
   -36.7626 -36.7622 -36.7294 -36.7254 -36.7054 -36.6806 -36.6756 -36.6693
   -36.6550 -36.6413 -36.6293 -36.6279 -17.1921 -17.1878 -17.1799 -17.1796
   -17.1370 -17.1177 -17.0525 -17.0319 -16.9912 -16.9822 -16.9788 -16.9747
    10.7017  11.1580  11.4812  11.8450  12.6635  12.7546  12.8060  12.9006
    13.1518  13.2510  13.4797  13.4857  13.7825  13.9339  13.9341  13.9525
    13.9756  14.0222  14.1260  14.1581  14.2933  14.3782  14.3857  14.3875
    14.4262  14.4522  14.4551  14.5030  14.6430  14.6631  14.8023  14.8049
    15.1680  15.3327  15.7294  15.7883  15.8806  15.9387  15.9898  16.0530
    16.2079  16.2299  16.5821  16.5865  16.7086  16.7493  16.8138  16.8180
    16.8352  17.1796  17.2706  17.3393  17.4743  17.4932  17.7825  17.8892
    17.8914  18.0872

          k = 0.0000-0.5774-0.3091 ( 18108 PWs)   bands (ev):

   -70.7570 -70.7570 -70.7310 -70.7310 -70.7003 -70.7003 -70.6994 -70.6994
   -40.8627 -40.8627 -40.8395 -40.8395 -37.0617 -37.0617 -36.9450 -36.9450
   -36.8544 -36.8544 -36.8394 -36.8394 -36.8249 -36.8249 -36.7725 -36.7725
   -36.7623 -36.7623 -36.7266 -36.7266 -36.6848 -36.6848 -36.6672 -36.6672
   -36.6570 -36.6570 -36.6284 -36.6284 -17.1854 -17.1854 -17.1839 -17.1839
   -17.1294 -17.1294 -17.0407 -17.0407 -16.9850 -16.9850 -16.9784 -16.9784
    10.9492  10.9492  11.5855  11.5855  12.7060  12.7060  12.9058  12.9058
    13.3056  13.3056  13.3508  13.3508  13.8711  13.8711  13.9309  13.9309
    13.9576  13.9576  14.2032  14.2032  14.3527  14.3527  14.3772  14.3772
    14.4073  14.4073  14.4826  14.4826  14.6457  14.6457  14.8364  14.8364
    15.5015  15.5015  15.5842  15.5842  15.8343  15.8343  15.9637  15.9637
    16.2290  16.2290  16.6282  16.6282  16.6608  16.6608  16.8190  16.8190
    16.9917  16.9917  17.3378  17.3378  17.6569  17.6569  17.6803  17.6803
    18.0467  18.0467

          k = 0.1667 0.2887 0.0000 ( 18169 PWs)   bands (ev):

   -70.7753 -70.7522 -70.7266 -70.7212 -70.7095 -70.6994 -70.6994 -70.6918
   -40.8751 -40.8604 -40.8420 -40.8264 -37.1295 -37.0607 -37.0039 -36.8950
   -36.8894 -36.8657 -36.8585 -36.8500 -36.8260 -36.7869 -36.7825 -36.7617
   -36.7470 -36.7450 -36.7448 -36.7045 -36.6838 -36.6551 -36.6496 -36.6493
   -36.6438 -36.6407 -36.6388 -36.6332 -17.1953 -17.1882 -17.1724 -17.1680
   -17.1467 -17.1140 -17.0557 -17.0178 -17.0050 -16.9901 -16.9756 -16.9751
     9.3928  11.2222  11.9120  12.2305  12.5142  12.5403  12.6040  12.8670
    12.9991  13.0177  13.3717  13.5193  13.5805  13.6505  13.7148  13.9110
    13.9487  14.1615  14.2134  14.2931  14.3380  14.4145  14.4373  14.4426
    14.5258  14.5859  14.6307  14.7863  14.9223  15.0304  15.1389  15.2910
    15.3374  15.4897  15.7591  15.8329  15.9360  16.0820  16.1789  16.2304
    16.2352  16.3213  16.5254  16.5479  16.5909  16.6577  16.7659  16.9192
    16.9453  17.0943  17.2230  17.2834  17.2957  17.3079  17.7396  17.7867
    17.7942  17.8693

          k = 0.1667 0.2887 0.1030 ( 18191 PWs)   bands (ev):

   -70.7742 -70.7547 -70.7254 -70.7212 -70.7083 -70.6994 -70.6994 -70.6928
   -40.8744 -40.8621 -40.8402 -40.8272 -37.1269 -37.0715 -36.9898 -36.9002
   -36.8880 -36.8604 -36.8576 -36.8492 -36.8239 -36.8181 -36.7789 -36.7699
   -36.7515 -36.7304 -36.7245 -36.7033 -36.6815 -36.6571 -36.6537 -36.6480
   -36.6452 -36.6412 -36.6387 -36.6357 -17.1936 -17.1872 -17.1735 -17.1697
   -17.1452 -17.1171 -17.0527 -17.0211 -17.0017 -16.9890 -16.9771 -16.9760
     9.4637  10.9178  12.1518  12.2322  12.5122  12.5267  12.5834  12.9794
    12.9933  13.0327  13.3234  13.4666  13.6120  13.6556  13.7272  13.9189
    13.9436  14.0889  14.1801  14.2411  14.3497  14.3781  14.4732  14.4820
    14.5882  14.6238  14.7297  14.8445  14.8990  15.0156  15.1729  15.2751
    15.3116  15.4998  15.7387  15.7729  15.8983  16.0423  16.1503  16.1824
    16.1979  16.3110  16.4162  16.6149  16.6298  16.7092  16.7380  16.9119
    16.9817  17.1462  17.2349  17.2843  17.3284  17.3412  17.6138  17.7598
    17.8281  17.9299

          k = 0.1667 0.2887 0.2061 ( 18187 PWs)   bands (ev):

   -70.7710 -70.7601 -70.7235 -70.7215 -70.7047 -70.6994 -70.6994 -70.6958
   -40.8725 -40.8657 -40.8365 -40.8292 -37.1192 -37.0900 -36.9623 -36.9130
   -36.8831 -36.8560 -36.8557 -36.8478 -36.8412 -36.8171 -36.8019 -36.7887
   -36.7308 -36.7193 -36.7037 -36.6961 -36.6744 -36.6640 -36.6620 -36.6500
   -36.6474 -36.6451 -36.6385 -36.6381 -17.1887 -17.1845 -17.1765 -17.1747
   -17.1405 -17.1245 -17.0454 -17.0281 -16.9950 -16.9862 -16.9814 -16.9786
     9.6725  10.4394  12.2439  12.3357  12.4748  12.5513  12.7075  12.9682
    13.0625  13.1420  13.2282  13.3675  13.6556  13.6706  13.7325  13.8981
    13.9711  14.0192  14.1281  14.1466  14.3261  14.4176  14.5564  14.5773
    14.6548  14.6584  14.8652  14.8687  14.9494  14.9897  15.1425  15.2436
    15.3550  15.5385  15.6612  15.7632  15.8368  15.9144  15.9710  16.0169
    16.1889  16.2959  16.4906  16.6070  16.6645  16.6857  16.7281  16.8499
    17.0946  17.2280  17.2646  17.3172  17.3730  17.4426  17.5398  17.6772
    17.7851  17.9393

          k = 0.1667 0.2887-0.3091 ( 18172 PWs)   bands (ev):

   -70.7660 -70.7660 -70.7222 -70.7222 -70.7001 -70.7001 -70.6994 -70.6994
   -40.8694 -40.8694 -40.8325 -40.8325 -37.1067 -37.1067 -36.9342 -36.9342
   -36.8721 -36.8721 -36.8539 -36.8539 -36.8235 -36.8235 -36.8051 -36.8051
   -36.7204 -36.7204 -36.6892 -36.6892 -36.6708 -36.6708 -36.6618 -36.6618
   -36.6468 -36.6468 -36.6384 -36.6384 -17.1823 -17.1823 -17.1800 -17.1800
   -17.1331 -17.1331 -17.0365 -17.0365 -16.9879 -16.9879 -16.9822 -16.9822
    10.0062  10.0062  12.2806  12.2806  12.5487  12.5487  12.8655  12.8655
    13.1297  13.1297  13.2726  13.2726  13.6672  13.6672  13.7945  13.7945
    14.0113  14.0113  14.1174  14.1174  14.3736  14.3736  14.6172  14.6172
    14.6670  14.6670  14.9167  14.9167  14.9562  14.9562  15.1534  15.1534
    15.5091  15.5091  15.7512  15.7512  15.7708  15.7708  15.8890  15.8890
    16.2479  16.2479  16.5687  16.5687  16.6667  16.6667  16.7621  16.7621
    17.2105  17.2105  17.2830  17.2830  17.4692  17.4692  17.5913  17.5913
    17.8126  17.8126

          k = 0.1667 0.4811 0.0000 ( 18164 PWs)   bands (ev):

   -70.7668 -70.7424 -70.7314 -70.7266 -70.7194 -70.6994 -70.6994 -70.6901
   -40.8671 -40.8520 -40.8504 -40.8349 -37.0769 -37.0078 -36.9997 -36.9343
   -36.8894 -36.8686 -36.8603 -36.8103 -36.7872 -36.7839 -36.7765 -36.7648
   -36.7631 -36.7501 -36.7488 -36.7387 -36.6984 -36.6930 -36.6796 -36.6532
   -36.6458 -36.6454 -36.6445 -36.6278 -17.1988 -17.1933 -17.1802 -17.1772
   -17.1316 -17.0895 -17.0788 -17.0337 -16.9956 -16.9827 -16.9772 -16.9669
    10.2872  11.5126  11.9166  12.3088  12.3250  12.6053  12.6533  12.8371
    12.8807  13.1331  13.6522  13.7021  13.7648  13.8274  13.8411  13.9093
    13.9111  14.0359  14.1879  14.2045  14.2352  14.3127  14.4067  14.4175
    14.4866  14.5009  14.5284  14.5490  14.6182  14.7078  14.8345  14.8527
    14.9848  15.1275  15.6566  15.7829  15.9416  15.9530  16.0823  16.1504
    16.3907  16.4238  16.4567  16.6029  16.6775  16.7227  16.8239  16.9513
    17.1276  17.1282  17.2059  17.2236  17.3224  17.4610  17.7241  17.7901
    17.9209  18.0272

          k = 0.1667 0.4811 0.1030 ( 18157 PWs)   bands (ev):

   -70.7656 -70.7449 -70.7314 -70.7288 -70.7147 -70.6994 -70.6994 -70.6913
   -40.8666 -40.8555 -40.8469 -40.8354 -37.0747 -37.0249 -36.9818 -36.9358
   -36.8873 -36.8641 -36.8578 -36.8137 -36.8042 -36.7894 -36.7804 -36.7732
   -36.7583 -36.7533 -36.7320 -36.7281 -36.6945 -36.6907 -36.6782 -36.6566
   -36.6490 -36.6455 -36.6435 -36.6310 -17.1974 -17.1918 -17.1814 -17.1771
   -17.1319 -17.1004 -17.0681 -17.0341 -16.9950 -16.9816 -16.9786 -16.9679
    10.3484  11.4679  11.7421  12.2510  12.5427  12.5550  12.6675  12.8199
    12.9603  13.1603  13.5947  13.6517  13.7847  13.8104  13.8870  13.9014
    13.9558  14.0410  14.0899  14.1547  14.2505  14.2686  14.3635  14.4409
    14.4542  14.5106  14.5390  14.5870  14.6474  14.7937  14.8532  14.9196
    15.0251  15.1650  15.6514  15.7505  15.8443  15.9779  16.0679  16.1136
    16.2619  16.3408  16.5652  16.6120  16.6881  16.6986  16.8393  16.9743
    17.0834  17.1396  17.1963  17.2757  17.3339  17.4476  17.6584  17.9027
    17.9564  18.0041

          k = 0.1667 0.4811 0.2061 ( 18153 PWs)   bands (ev):

   -70.7623 -70.7507 -70.7312 -70.7304 -70.7073 -70.6994 -70.6994 -70.6948
   -40.8651 -40.8594 -40.8429 -40.8370 -37.0683 -37.0430 -36.9628 -36.9405
   -36.8785 -36.8536 -36.8512 -36.8335 -36.8203 -36.8073 -36.7810 -36.7777
   -36.7567 -36.7550 -36.7148 -36.7112 -36.6913 -36.6783 -36.6726 -36.6658
   -36.6562 -36.6471 -36.6430 -36.6388 -17.1939 -17.1878 -17.1847 -17.1783
   -17.1308 -17.1140 -17.0547 -17.0368 -16.9925 -16.9826 -16.9785 -16.9707
    10.5275  11.1622  11.7642  12.1152  12.5334  12.6299  12.7747  12.8289
    13.1155  13.2302  13.4692  13.5170  13.8064  13.8407  13.8890  13.9161
    13.9629  14.0307  14.0514  14.1292  14.2154  14.2793  14.3366  14.3707
    14.4274  14.4818  14.5490  14.6037  14.7220  14.8406  14.9592  14.9911
    15.2112  15.3182  15.6261  15.6509  15.7146  15.8662  16.0130  16.0751
    16.1427  16.2321  16.5895  16.6393  16.6705  16.7461  16.8636  16.9802
    17.0601  17.1387  17.2404  17.2923  17.3301  17.4772  17.6756  17.8310
    17.9741  18.1275

          k = 0.1667 0.4811-0.3091 ( 18144 PWs)   bands (ev):

   -70.7570 -70.7570 -70.7310 -70.7310 -70.7003 -70.7003 -70.6994 -70.6994
   -40.8626 -40.8626 -40.8395 -40.8395 -37.0576 -37.0576 -36.9490 -36.9490
   -36.8603 -36.8603 -36.8454 -36.8454 -36.8223 -36.8223 -36.7800 -36.7800
   -36.7559 -36.7559 -36.7069 -36.7069 -36.6798 -36.6798 -36.6671 -36.6671
   -36.6575 -36.6575 -36.6424 -36.6424 -17.1894 -17.1894 -17.1823 -17.1823
   -17.1249 -17.1249 -17.0438 -17.0438 -16.9879 -16.9879 -16.9746 -16.9746
    10.8095  10.8095  11.9242  11.9242  12.5865  12.5865  12.8298  12.8298
    13.2940  13.2940  13.3694  13.3694  13.8372  13.8372  13.8816  13.8816
    14.0054  14.0054  14.0867  14.0867  14.2457  14.2457  14.3607  14.3607
    14.4263  14.4263  14.5657  14.5657  14.7972  14.7972  15.0280  15.0280
    15.4256  15.4256  15.5728  15.5728  15.6836  15.6836  15.9966  15.9966
    16.1692  16.1692  16.6243  16.6243  16.7097  16.7097  16.9222  16.9222
    17.0975  17.0975  17.2716  17.2716  17.4326  17.4326  17.7500  17.7500
    18.0029  18.0029

          k = 0.3333 0.5774 0.0000 ( 18168 PWs)   bands (ev):

   -70.7627 -70.7359 -70.7359 -70.7266 -70.7259 -70.6994 -70.6994 -70.6896
   -40.8589 -40.8589 -40.8434 -40.8434 -37.0417 -36.9983 -36.9677 -36.9677
   -36.9204 -36.8657 -36.8657 -36.7885 -36.7885 -36.7778 -36.7778 -36.7696
   -36.7610 -36.7610 -36.7563 -36.6952 -36.6952 -36.6938 -36.6800 -36.6800
   -36.6727 -36.6491 -36.6491 -36.6264 -17.2030 -17.1867 -17.1867 -17.1854
   -17.1055 -17.1055 -17.0606 -17.0606 -16.9857 -16.9857 -16.9782 -16.9625
    10.8827  11.6231  11.6231  12.3709  12.4069  12.6313  12.6313  12.7349
    12.7349  13.0882  13.7839  13.7839  13.8580  13.8580  13.9723  13.9723
    13.9749  13.9780  14.0171  14.0171  14.1085  14.2109  14.2567  14.2567
    14.5169  14.5169  14.5291  14.5858  14.5858  14.8864  14.8864  14.9435
    14.9791  15.0590  15.6620  15.7047  15.7047  15.7462  15.7462  16.0392
    16.5542  16.5542  16.5746  16.5746  16.7899  16.7899  16.9454  16.9454
    16.9708  17.1398  17.3139  17.3854  17.3854  17.4009  17.7711  17.7712
    17.8201  17.9669

          k = 0.3333 0.5774 0.1030 ( 18162 PWs)   bands (ev):

   -70.7615 -70.7359 -70.7359 -70.7357 -70.7168 -70.6994 -70.6994 -70.6909
   -40.8589 -40.8589 -40.8434 -40.8434 -37.0399 -37.0037 -36.9679 -36.9679
   -36.9113 -36.8626 -36.8626 -36.7957 -36.7935 -36.7935 -36.7856 -36.7856
   -36.7515 -36.7515 -36.7338 -36.6943 -36.6926 -36.6926 -36.6797 -36.6797
   -36.6708 -36.6516 -36.6516 -36.6297 -17.2019 -17.1867 -17.1855 -17.1855
   -17.1092 -17.1092 -17.0572 -17.0572 -16.9866 -16.9866 -16.9771 -16.9634
    10.9333  11.6640  11.6640  11.9950  12.5133  12.5133  12.7851  12.8053
    12.8053  13.1222  13.7472  13.7472  13.8406  13.9084  13.9084  13.9267
    13.9610  13.9610  14.0199  14.0199  14.1475  14.1880  14.1941  14.1941
    14.4648  14.4648  14.5640  14.7227  14.7227  14.8822  14.8924  14.8924
    15.0748  15.1422  15.6180  15.6180  15.6327  15.8298  15.8298  15.9798
    16.3961  16.3961  16.6318  16.6318  16.7992  16.7992  16.9614  16.9937
    16.9937  17.1689  17.2197  17.3746  17.3746  17.4106  17.7665  17.7666
    17.9613  17.9613

          k = 0.3333 0.5774 0.2061 ( 18135 PWs)   bands (ev):

   -70.7579 -70.7445 -70.7359 -70.7359 -70.7080 -70.6994 -70.6994 -70.6946
   -40.8590 -40.8590 -40.8433 -40.8433 -37.0346 -37.0149 -36.9683 -36.9683
   -36.8891 -36.8546 -36.8546 -36.8285 -36.8102 -36.8102 -36.7868 -36.7868
   -36.7424 -36.7424 -36.7129 -36.6963 -36.6868 -36.6868 -36.6772 -36.6772
   -36.6640 -36.6588 -36.6588 -36.6390 -17.1988 -17.1900 -17.1829 -17.1829
   -17.1159 -17.1159 -17.0512 -17.0512 -16.9884 -16.9884 -16.9740 -16.9662
    11.0819  11.6307  11.7695  11.7695  12.3343  12.3343  12.8642  12.8642
    13.1512  13.2198  13.6299  13.7136  13.7136  13.7759  13.9034  13.9034
    13.9381  13.9381  14.0790  14.0790  14.1485  14.1525  14.1590  14.1590
    14.4181  14.4181  14.6438  14.7512  14.7512  14.8115  15.0476  15.0476
    15.2240  15.3335  15.4991  15.4991  15.5533  15.8211  15.9103  15.9103
    16.2267  16.2267  16.6367  16.6367  16.8114  16.8114  16.9569  17.0749
    17.0749  17.0778  17.2503  17.3358  17.3358  17.4000  17.7763  17.7763
    17.9198  17.9198

          k = 0.3333 0.5774-0.3091 ( 18156 PWs)   bands (ev):

   -70.7521 -70.7521 -70.7359 -70.7359 -70.7004 -70.7004 -70.6994 -70.6994
   -40.8591 -40.8591 -40.8432 -40.8432 -37.0259 -37.0259 -36.9685 -36.9685
   -36.8604 -36.8604 -36.8483 -36.8483 -36.8198 -36.8198 -36.7869 -36.7869
   -36.7394 -36.7394 -36.7013 -36.7013 -36.6844 -36.6844 -36.6689 -36.6689
   -36.6688 -36.6688 -36.6520 -36.6520 -17.1945 -17.1945 -17.1815 -17.1815
   -17.1191 -17.1191 -17.0484 -17.0484 -16.9894 -16.9894 -16.9700 -16.9700
    11.3195  11.3195  11.8493  11.8493  12.2278  12.2278  12.8832  12.8832
    13.3427  13.3427  13.5601  13.5601  13.7003  13.7003  13.8817  13.8817
    13.9279  13.9279  14.1248  14.1248  14.1397  14.1397  14.1654  14.1654
    14.3903  14.3903  14.7287  14.7287  14.7312  14.7312  15.1914  15.1914
    15.3759  15.3759  15.3976  15.3976  15.6109  15.6109  15.9413  15.9413
    16.1585  16.1585  16.6346  16.6346  16.8163  16.8163  16.9897  16.9897
    17.1187  17.1187  17.3030  17.3030  17.3389  17.3389  17.7868  17.7868
    17.8924  17.8924

     the Fermi energy is    16.1673 ev

!    total energy              =   -3111.34840564 Ry
     estimated scf accuracy    <          4.2E-09 Ry
     smearing contrib. (-TS)   =       0.00009770 Ry
     internal energy E=F+TS    =   -3111.34850334 Ry

     The total energy is F=E-TS. E is the sum of the following terms:
     one-electron contribution =   -1208.36369900 Ry
     hartree contribution      =     698.27624935 Ry
     xc contribution           =    -349.40605880 Ry
     ewald contribution        =   -1642.60130586 Ry
     one-center paw contrib.   =    -609.25368904 Ry

     convergence has been achieved in  28 iterations

     negative rho (up, down):  2.189E-03 0.000E+00

     Forces acting on atoms (cartesian axes, Ry/au):

     atom    1 type  1   force =    -0.01335010    0.00770769    0.00000000
     atom    2 type  1   force =     0.01335010   -0.00770769    0.00000000
     atom    3 type  1   force =     0.00000000    0.01541537    0.00000000
     atom    4 type  1   force =     0.01335010    0.00770769    0.00000000
     atom    5 type  1   force =     0.00000000   -0.01541537    0.00000000
     atom    6 type  1   force =    -0.01335010   -0.00770769    0.00000000
     atom    7 type  1   force =     0.00000000    0.00000000   -0.00000000
     atom    8 type  1   force =     0.00000000    0.00000000   -0.00000000
     atom    9 type  2   force =    -0.00000000    0.00000000   -0.01101088
     atom   10 type  2   force =     0.00000000    0.00000000   -0.01101088
     atom   11 type  2   force =     0.00000000   -0.00000000    0.01101088
     atom   12 type  2   force =    -0.00000000   -0.00000000    0.01101088

     Total force =     0.043712     Total SCF correction =     0.000024


     Computing stress (Cartesian axis) and pressure


     negative rho (up, down):  2.189E-03 0.000E+00
          total   stress  (Ry/bohr**3)                   (kbar)     P=     -150.42
  -0.00110765  -0.00000000   0.00000000         -162.94       -0.00        0.00
  -0.00000000  -0.00110765   0.00000000           -0.00     -162.94        0.00
  -0.00000000  -0.00000000  -0.00085240           -0.00       -0.00     -125.39


     Writing all to output data dir ./FeAl.save/ :
     XML data file, charge density, pseudopotentials, collected wavefunctions

     init_run     :      4.60s CPU      4.74s WALL (       1 calls)
     electrons    :    237.67s CPU    242.24s WALL (       1 calls)
     forces       :      1.14s CPU      1.15s WALL (       1 calls)
     stress       :      4.34s CPU      4.38s WALL (       1 calls)

     Called by init_run:
     wfcinit      :      3.23s CPU      3.33s WALL (       1 calls)
     potinit      :      0.62s CPU      0.64s WALL (       1 calls)
     hinit0       :      0.54s CPU      0.55s WALL (       1 calls)

     Called by electrons:
     c_bands      :    204.85s CPU    208.20s WALL (      28 calls)
     sum_band     :     25.42s CPU     26.03s WALL (      28 calls)
     v_of_rho     :      0.39s CPU      0.45s WALL (      29 calls)
     newd         :      1.95s CPU      2.18s WALL (      29 calls)
     PAW_pot      :      5.14s CPU      5.35s WALL (      29 calls)
     mix_rho      :      0.10s CPU      0.11s WALL (      28 calls)

     Called by c_bands:
     init_us_2    :      1.66s CPU      1.68s WALL (    1652 calls)
     cegterg      :    196.88s CPU    200.00s WALL (     784 calls)

     Called by *egterg:
     cdiaghg      :     35.77s CPU     35.91s WALL (    2925 calls)
     h_psi        :    106.57s CPU    108.61s WALL (    2953 calls)
     s_psi        :      9.90s CPU     10.13s WALL (    2953 calls)
     g_psi        :      0.50s CPU      0.50s WALL (    2141 calls)

     Called by h_psi:
     h_psi:calbec :     15.01s CPU     15.14s WALL (    2953 calls)
     vloc_psi     :     80.76s CPU     82.27s WALL (    2953 calls)
     add_vuspsi   :     10.21s CPU     10.28s WALL (    2953 calls)

     General routines
     calbec       :     24.22s CPU     24.39s WALL (    4213 calls)
     fft          :      0.74s CPU      0.80s WALL (     400 calls)
     ffts         :      0.45s CPU      0.46s WALL (      57 calls)
     fftw         :     84.01s CPU     85.46s WALL (  507520 calls)
     interpolate  :      0.46s CPU      0.47s WALL (      29 calls)

     Parallel routines

     PWSCF        :    248.59s CPU    262.81s WALL


   This run was terminated on:  14:58:26  27Oct2025            

=------------------------------------------------------------------------------=
   JOB DONE.
=------------------------------------------------------------------------------=
Note: The following floating-point exceptions are signalling: IEEE_UNDERFLOW_FLAG IEEE_DENORMAL
Note: The following floating-point exceptions are signalling: IEEE_UNDERFLOW_FLAG IEEE_DENORMAL
Note: The following floating-point exceptions are signalling: IEEE_UNDERFLOW_FLAG IEEE_DENORMAL
Note: The following floating-point exceptions are signalling: IEEE_UNDERFLOW_FLAG IEEE_DENORMAL
Note: The following floating-point exceptions are signalling: IEEE_UNDERFLOW_FLAG IEEE_DENORMAL
Note: The following floating-point exceptions are signalling: IEEE_UNDERFLOW_FLAG IEEE_DENORMAL
Note: The following floating-point exceptions are signalling: IEEE_UNDERFLOW_FLAG IEEE_DENORMAL
Note: The following floating-point exceptions are signalling: IEEE_UNDERFLOW_FLAG IEEE_DENORMAL
Note: The following floating-point exceptions are signalling: IEEE_UNDERFLOW_FLAG IEEE_DENORMAL
Note: The following floating-point exceptions are signalling: IEEE_UNDERFLOW_FLAG IEEE_DENORMAL
Note: The following floating-point exceptions are signalling: IEEE_UNDERFLOW_FLAG IEEE_DENORMAL
Note: The following floating-point exceptions are signalling: IEEE_UNDERFLOW_FLAG IEEE_DENORMAL
Note: The following floating-point exceptions are signalling: IEEE_UNDERFLOW_FLAG IEEE_DENORMAL
Note: The following floating-point exceptions are signalling: IEEE_UNDERFLOW_FLAG IEEE_DENORMAL
Note: The following floating-point exceptions are signalling: IEEE_UNDERFLOW_FLAG IEEE_DENORMAL
Note: The following floating-point exceptions are signalling: IEEE_UNDERFLOW_FLAG IEEE_DENORMAL
