
     Program PWSCF v.7.4 starts on 27Oct2025 at 14:33:48 

     This program is part of the open-source Quantum ESPRESSO suite
     for quantum simulation of materials; please cite
         "P. Giannozzi et al., J. Phys.:Condens. Matter 21 395502 (2009);
         "P. Giannozzi et al., J. Phys.:Condens. Matter 29 465901 (2017);
         "P. Giannozzi et al., J. Chem. Phys. 152 154105 (2020);
          URL http://www.quantum-espresso.org", 
     in publications or presentations arising from this work. More details at
     http://www.quantum-espresso.org/quote

     Parallel version (MPI & OpenMP), running on      16 processor cores
     Number of MPI processes:                16
     Threads/MPI process:                     1

     MPI processes distributed on     1 nodes
     229141 MiB available memory on the printing compute node when the environment starts

     Reading input from TiFe2_ecutwfc_convergence/TiFe2_ecut20.in

     Current dimensions of program PWSCF are:
     Max number of different atomic species (ntypx) = 10
     Max number of k-points (npk) =  40000
     Max angular momentum in pseudopotentials (lmaxx) =  4
     file Fe.pbe-spn-kjpaw_psl.0.2.1.UPF: wavefunction(s)  3D renormalized

     IMPORTANT: XC functional enforced from input :
     Exchange-correlation= PBE
                           (   1   4   3   4   0   0   0)
     Any further DFT definition will be discarded
     Please, verify this is what you really want

     Message from routine setup:
     using ibrav=0 with symmetry is DISCOURAGED, use correct ibrav instead

     R & G space division:  proc/nbgrp/npool/nimage =      16
     Subspace diagonalization in iterative solution of the eigenvalue problem:
     a serial algorithm will be used


     Parallelization info
     --------------------
     sticks:   dense  smooth     PW     G-vecs:    dense   smooth      PW
     Min          36      28      9                 1138      809     141
     Max          37      29     10                 1143      813     144
     Sum         583     463    151                18257    12973    2273

     Using Slab Decomposition



     bravais-lattice index     =            0
     lattice parameter (alat)  =       9.1568  a.u.
     unit-cell volume          =    1075.5644 (a.u.)^3
     number of atoms/cell      =           12
     number of atomic types    =            2
     number of electrons       =       176.00
     number of Kohn-Sham states=          106
     kinetic-energy cutoff     =      20.0000  Ry
     charge density cutoff     =     100.0000  Ry
     scf convergence threshold =      1.0E-08
     mixing beta               =       0.7000
     number of iterations used =            8  plain     mixing
     Exchange-correlation= PBE
                           (   1   4   3   4   0   0   0)

     celldm(1)=   9.156781  celldm(2)=   0.000000  celldm(3)=   0.000000
     celldm(4)=   0.000000  celldm(5)=   0.000000  celldm(6)=   0.000000

     crystal axes: (cart. coord. in units of alat)
               a(1) = (   1.000000   0.000000   0.000000 )  
               a(2) = (  -0.500000   0.866025   0.000000 )  
               a(3) = (   0.000000   0.000000   1.617623 )  

     reciprocal axes: (cart. coord. in units 2 pi/alat)
               b(1) = (  1.000000  0.577350 -0.000000 )  
               b(2) = (  0.000000  1.154701  0.000000 )  
               b(3) = (  0.000000 -0.000000  0.618191 )  


     PseudoPot. # 1 for Fe read from file:
     ./Fe.pbe-spn-kjpaw_psl.0.2.1.UPF
     MD5 check sum: e86618425769142926afa95317d90200
     Pseudo is Projector augmented-wave + core cor, Zval = 16.0
     Generated using "atomic" code by A. Dal Corso  v.5.0.99 svn rev. 10869
     Shape of augmentation charge: PSQ
     Using radial grid of 1191 points,  6 beta functions with: 
                l(1) =   0
                l(2) =   0
                l(3) =   1
                l(4) =   1
                l(5) =   2
                l(6) =   2
     Q(r) pseudized with 0 coefficients 


     PseudoPot. # 2 for Ti read from file:
     ./Ti_pbe_v1.4.uspp.F.UPF
     MD5 check sum: 88a00a6731bd790ddea75d31a80cb452
     Pseudo is Ultrasoft + core correction, Zval = 12.0
     Generated by new atomic code, or converted to UPF format
     Using radial grid of  851 points,  6 beta functions with: 
                l(1) =   0
                l(2) =   0
                l(3) =   1
                l(4) =   1
                l(5) =   2
                l(6) =   2
     Q(r) pseudized with  6 coefficients,  rinner =    1.000   1.000   1.000
                                                       1.000   1.000

     atomic species   valence    mass     pseudopotential
     Fe               16.00    55.84500     Fe( 1.00)
     Ti               12.00    47.86700     Ti( 1.00)

     24 Sym. Ops., with inversion, found (12 have fractional translation)



   Cartesian axes

     site n.     atom                  positions (alat units)
         1        Fe     tau(   1) = (   0.7465670   0.1463196   0.4044057  )
         2        Fe     tau(   2) = (  -0.2465670   0.7197058   1.2132171  )
         3        Fe     tau(   3) = (  -0.0000000   0.2926392   1.2132171  )
         4        Fe     tau(   4) = (   0.2534330   0.1463196   0.4044057  )
         5        Fe     tau(   5) = (   0.5000000   0.5733862   0.4044057  )
         6        Fe     tau(   6) = (   0.2465670   0.7197058   1.2132171  )
         7        Fe     tau(   7) = (   0.0000000   0.0000000   0.0000000  )
         8        Fe     tau(   8) = (   0.0000000   0.0000000   0.8088114  )
         9        Ti     tau(   9) = (   0.5000000   0.2886751   1.5200090  )
        10        Ti     tau(  10) = (  -0.0000000   0.5773503   0.7111976  )
        11        Ti     tau(  11) = (  -0.0000000   0.5773503   0.0976138  )
        12        Ti     tau(  12) = (   0.5000000   0.2886751   0.9064252  )

     number of k points=    28  Marzari-Vanderbilt smearing, width (Ry)=  0.0050
                       cart. coord. in units 2pi/alat
        k(    1) = (   0.0000000   0.0000000   0.0000000), wk =   0.0092593
        k(    2) = (   0.0000000   0.0000000   0.1030318), wk =   0.0185185
        k(    3) = (   0.0000000   0.0000000   0.2060637), wk =   0.0185185
        k(    4) = (   0.0000000   0.0000000  -0.3090955), wk =   0.0092593
        k(    5) = (   0.0000000   0.1924501   0.0000000), wk =   0.0555556
        k(    6) = (   0.0000000   0.1924501   0.1030318), wk =   0.1111111
        k(    7) = (   0.0000000   0.1924501   0.2060637), wk =   0.1111111
        k(    8) = (   0.0000000   0.1924501  -0.3090955), wk =   0.0555556
        k(    9) = (   0.0000000   0.3849002   0.0000000), wk =   0.0555556
        k(   10) = (   0.0000000   0.3849002   0.1030318), wk =   0.1111111
        k(   11) = (   0.0000000   0.3849002   0.2060637), wk =   0.1111111
        k(   12) = (   0.0000000   0.3849002  -0.3090955), wk =   0.0555556
        k(   13) = (   0.0000000  -0.5773503   0.0000000), wk =   0.0277778
        k(   14) = (   0.0000000  -0.5773503   0.1030318), wk =   0.0555556
        k(   15) = (   0.0000000  -0.5773503   0.2060637), wk =   0.0555556
        k(   16) = (   0.0000000  -0.5773503  -0.3090955), wk =   0.0277778
        k(   17) = (   0.1666667   0.2886751   0.0000000), wk =   0.0555556
        k(   18) = (   0.1666667   0.2886751   0.1030318), wk =   0.1111111
        k(   19) = (   0.1666667   0.2886751   0.2060637), wk =   0.1111111
        k(   20) = (   0.1666667   0.2886751  -0.3090955), wk =   0.0555556
        k(   21) = (   0.1666667   0.4811252   0.0000000), wk =   0.1111111
        k(   22) = (   0.1666667   0.4811252   0.1030318), wk =   0.2222222
        k(   23) = (   0.1666667   0.4811252   0.2060637), wk =   0.2222222
        k(   24) = (   0.1666667   0.4811252  -0.3090955), wk =   0.1111111
        k(   25) = (   0.3333333   0.5773503   0.0000000), wk =   0.0185185
        k(   26) = (   0.3333333   0.5773503   0.1030318), wk =   0.0370370
        k(   27) = (   0.3333333   0.5773503   0.2060637), wk =   0.0370370
        k(   28) = (   0.3333333   0.5773503  -0.3090955), wk =   0.0185185

     Dense  grid:    18257 G-vectors     FFT dimensions: (  30,  30,  48)

     Smooth grid:    12973 G-vectors     FFT dimensions: (  27,  27,  48)

     Estimated max dynamical RAM per process >      11.03 MB

     Estimated total dynamical RAM >     176.46 MB

     Check: negative core charge=   -0.011916

     Initial potential from superposition of free atoms

     starting charge     171.9963, renormalised to     176.0000

     negative rho (up, down):  3.136E-02 0.000E+00
     Starting wfcs are  144 randomized atomic wfcs
     Checking if some PAW data can be deallocated... 

     total cpu time spent up to now is        1.9 secs

     per-process dynamical memory:   120.1 Mb

     Self-consistent Calculation

     iteration #  1     ecut=    20.00 Ry     beta= 0.70
     Davidson diagonalization with overlap
     ethr =  1.00E-02,  avg # of iterations =  2.7

     total cpu time spent up to now is        4.9 secs

     total energy              =   -2997.99885131 Ry
     estimated scf accuracy    <     135.05685122 Ry

     iteration #  2     ecut=    20.00 Ry     beta= 0.70
     Davidson diagonalization with overlap
     ethr =  1.00E-02,  avg # of iterations =  4.6

     negative rho (up, down):  9.724E-03 0.000E+00

     total cpu time spent up to now is        9.6 secs

     total energy              =   -3076.25076395 Ry
     estimated scf accuracy    <     656.31298944 Ry

     iteration #  3     ecut=    20.00 Ry     beta= 0.70
     Davidson diagonalization with overlap
     ethr =  1.00E-02,  avg # of iterations =  4.4

     negative rho (up, down):  1.705E-02 0.000E+00

     total cpu time spent up to now is       13.6 secs

     total energy              =   -3119.64991625 Ry
     estimated scf accuracy    <     109.41170264 Ry

     iteration #  4     ecut=    20.00 Ry     beta= 0.70
     Davidson diagonalization with overlap
     ethr =  1.00E-02,  avg # of iterations =  1.8

     negative rho (up, down):  1.789E-02 0.000E+00

     total cpu time spent up to now is       15.7 secs

     total energy              =   -3116.15952124 Ry
     estimated scf accuracy    <      71.66273713 Ry

     iteration #  5     ecut=    20.00 Ry     beta= 0.70
     Davidson diagonalization with overlap
     ethr =  1.00E-02,  avg # of iterations =  1.3

     negative rho (up, down):  1.793E-02 0.000E+00

     total cpu time spent up to now is       17.7 secs

     total energy              =   -3114.15384551 Ry
     estimated scf accuracy    <      53.95009279 Ry

     iteration #  6     ecut=    20.00 Ry     beta= 0.70
     Davidson diagonalization with overlap
     ethr =  1.00E-02,  avg # of iterations =  1.0

     negative rho (up, down):  1.748E-02 0.000E+00

     total cpu time spent up to now is       19.6 secs

     total energy              =   -3113.51589137 Ry
     estimated scf accuracy    <      46.25546573 Ry

     iteration #  7     ecut=    20.00 Ry     beta= 0.70
     Davidson diagonalization with overlap
     ethr =  1.00E-02,  avg # of iterations =  1.0

     negative rho (up, down):  2.821E-02 0.000E+00

     total cpu time spent up to now is       21.6 secs

     total energy              =   -3101.53674660 Ry
     estimated scf accuracy    <      53.12648522 Ry

     iteration #  8     ecut=    20.00 Ry     beta= 0.70
     Davidson diagonalization with overlap
     ethr =  1.00E-02,  avg # of iterations =  4.8

     negative rho (up, down):  2.429E-02 0.000E+00

     total cpu time spent up to now is       25.2 secs

     total energy              =   -3106.34035458 Ry
     estimated scf accuracy    <      36.36688079 Ry

     iteration #  9     ecut=    20.00 Ry     beta= 0.70
     Davidson diagonalization with overlap
     ethr =  1.00E-02,  avg # of iterations =  1.1

     negative rho (up, down):  2.570E-02 0.000E+00

     total cpu time spent up to now is       27.2 secs

     total energy              =   -3107.41153239 Ry
     estimated scf accuracy    <      12.92988625 Ry

     iteration # 10     ecut=    20.00 Ry     beta= 0.70
     Davidson diagonalization with overlap
     ethr =  7.35E-03,  avg # of iterations =  1.3

     negative rho (up, down):  2.120E-02 0.000E+00

     total cpu time spent up to now is       29.2 secs

     total energy              =   -3104.27552750 Ry
     estimated scf accuracy    <      35.53822534 Ry

     iteration # 11     ecut=    20.00 Ry     beta= 0.70
     Davidson diagonalization with overlap
     ethr =  7.35E-03,  avg # of iterations =  1.7

     negative rho (up, down):  2.255E-02 0.000E+00

     total cpu time spent up to now is       31.3 secs

     total energy              =   -3106.16614265 Ry
     estimated scf accuracy    <       1.11250875 Ry

     iteration # 12     ecut=    20.00 Ry     beta= 0.70
     Davidson diagonalization with overlap
     ethr =  6.32E-04,  avg # of iterations =  2.2

     negative rho (up, down):  1.908E-02 0.000E+00

     total cpu time spent up to now is       33.6 secs

     total energy              =   -3105.88556483 Ry
     estimated scf accuracy    <       2.20888018 Ry

     iteration # 13     ecut=    20.00 Ry     beta= 0.70
     Davidson diagonalization with overlap
     ethr =  6.32E-04,  avg # of iterations =  5.6

     negative rho (up, down):  2.118E-02 0.000E+00

     total cpu time spent up to now is       37.9 secs

     total energy              =   -3107.01789580 Ry
     estimated scf accuracy    <       9.40634308 Ry

     iteration # 14     ecut=    20.00 Ry     beta= 0.70
     Davidson diagonalization with overlap
     ethr =  6.32E-04,  avg # of iterations =  1.0

     negative rho (up, down):  2.294E-02 0.000E+00

     total cpu time spent up to now is       39.8 secs

     total energy              =   -3106.39596723 Ry
     estimated scf accuracy    <       8.09534091 Ry

     iteration # 15     ecut=    20.00 Ry     beta= 0.70
     Davidson diagonalization with overlap
     ethr =  6.32E-04,  avg # of iterations =  2.0

     negative rho (up, down):  2.284E-02 0.000E+00

     total cpu time spent up to now is       42.1 secs

     total energy              =   -3106.42509495 Ry
     estimated scf accuracy    <       3.16420718 Ry

     iteration # 16     ecut=    20.00 Ry     beta= 0.70
     Davidson diagonalization with overlap
     ethr =  6.32E-04,  avg # of iterations =  1.0

     negative rho (up, down):  2.334E-02 0.000E+00

     total cpu time spent up to now is       44.0 secs

     total energy              =   -3106.24429546 Ry
     estimated scf accuracy    <       2.45277140 Ry

     iteration # 17     ecut=    20.00 Ry     beta= 0.70
     Davidson diagonalization with overlap
     ethr =  6.32E-04,  avg # of iterations =  1.4

     negative rho (up, down):  2.327E-02 0.000E+00

     total cpu time spent up to now is       46.0 secs

     total energy              =   -3106.28236490 Ry
     estimated scf accuracy    <       0.44943760 Ry

     iteration # 18     ecut=    20.00 Ry     beta= 0.70
     Davidson diagonalization with overlap
     ethr =  2.55E-04,  avg # of iterations =  1.1

     negative rho (up, down):  2.353E-02 0.000E+00

     total cpu time spent up to now is       47.9 secs

     total energy              =   -3106.28043487 Ry
     estimated scf accuracy    <       0.34310421 Ry

     iteration # 19     ecut=    20.00 Ry     beta= 0.70
     Davidson diagonalization with overlap
     ethr =  1.95E-04,  avg # of iterations =  1.1

     negative rho (up, down):  2.456E-02 0.000E+00

     total cpu time spent up to now is       49.9 secs

     total energy              =   -3106.26049144 Ry
     estimated scf accuracy    <       0.25251620 Ry

     iteration # 20     ecut=    20.00 Ry     beta= 0.70
     Davidson diagonalization with overlap
     ethr =  1.43E-04,  avg # of iterations =  2.2

     negative rho (up, down):  2.477E-02 0.000E+00

     total cpu time spent up to now is       52.2 secs

     total energy              =   -3106.26090398 Ry
     estimated scf accuracy    <       0.10717210 Ry

     iteration # 21     ecut=    20.00 Ry     beta= 0.70
     Davidson diagonalization with overlap
     ethr =  6.09E-05,  avg # of iterations =  2.9

     negative rho (up, down):  2.480E-02 0.000E+00

     total cpu time spent up to now is       54.7 secs

     total energy              =   -3106.26616275 Ry
     estimated scf accuracy    <       0.00109505 Ry

     iteration # 22     ecut=    20.00 Ry     beta= 0.70
     Davidson diagonalization with overlap
     ethr =  6.22E-07,  avg # of iterations =  8.0

     negative rho (up, down):  2.472E-02 0.000E+00

     total cpu time spent up to now is       60.3 secs

     total energy              =   -3106.26740389 Ry
     estimated scf accuracy    <       0.00560531 Ry

     iteration # 23     ecut=    20.00 Ry     beta= 0.70
     Davidson diagonalization with overlap
     ethr =  6.22E-07,  avg # of iterations =  2.5

     negative rho (up, down):  2.476E-02 0.000E+00

     total cpu time spent up to now is       62.7 secs

     total energy              =   -3106.26769066 Ry
     estimated scf accuracy    <       0.00003388 Ry

     iteration # 24     ecut=    20.00 Ry     beta= 0.70
     Davidson diagonalization with overlap
     ethr =  1.93E-08,  avg # of iterations =  3.7

     negative rho (up, down):  2.476E-02 0.000E+00

     total cpu time spent up to now is       65.8 secs

     total energy              =   -3106.26769019 Ry
     estimated scf accuracy    <       0.00061307 Ry

     iteration # 25     ecut=    20.00 Ry     beta= 0.70
     Davidson diagonalization with overlap
     ethr =  1.93E-08,  avg # of iterations =  3.3

     negative rho (up, down):  2.476E-02 0.000E+00

     total cpu time spent up to now is       68.4 secs

     total energy              =   -3106.26769761 Ry
     estimated scf accuracy    <       0.00009002 Ry

     iteration # 26     ecut=    20.00 Ry     beta= 0.70
     Davidson diagonalization with overlap
     ethr =  1.93E-08,  avg # of iterations =  1.2

     negative rho (up, down):  2.476E-02 0.000E+00

     total cpu time spent up to now is       70.3 secs

     total energy              =   -3106.26769834 Ry
     estimated scf accuracy    <       0.00002540 Ry

     iteration # 27     ecut=    20.00 Ry     beta= 0.70
     Davidson diagonalization with overlap
     ethr =  1.44E-08,  avg # of iterations =  1.0

     negative rho (up, down):  2.476E-02 0.000E+00

     total cpu time spent up to now is       72.1 secs

     total energy              =   -3106.26769818 Ry
     estimated scf accuracy    <       0.00000863 Ry

     iteration # 28     ecut=    20.00 Ry     beta= 0.70
     Davidson diagonalization with overlap
     ethr =  4.90E-09,  avg # of iterations =  3.3

     negative rho (up, down):  2.476E-02 0.000E+00

     total cpu time spent up to now is       74.6 secs

     total energy              =   -3106.26769856 Ry
     estimated scf accuracy    <       0.00000040 Ry

     iteration # 29     ecut=    20.00 Ry     beta= 0.70
     Davidson diagonalization with overlap
     ethr =  2.26E-10,  avg # of iterations =  5.0

     negative rho (up, down):  2.476E-02 0.000E+00

     total cpu time spent up to now is       78.1 secs

     total energy              =   -3106.26769868 Ry
     estimated scf accuracy    <       0.00000031 Ry

     iteration # 30     ecut=    20.00 Ry     beta= 0.70
     Davidson diagonalization with overlap
     ethr =  1.73E-10,  avg # of iterations =  1.0

     negative rho (up, down):  2.476E-02 0.000E+00

     total cpu time spent up to now is       80.0 secs

     total energy              =   -3106.26769866 Ry
     estimated scf accuracy    <       0.00000009 Ry

     iteration # 31     ecut=    20.00 Ry     beta= 0.70
     Davidson diagonalization with overlap
     ethr =  4.94E-11,  avg # of iterations =  1.6

     negative rho (up, down):  2.476E-02 0.000E+00

     total cpu time spent up to now is       82.0 secs

     End of self-consistent calculation

          k = 0.0000 0.0000 0.0000 (  1653 PWs)   bands (ev):

   -71.3768 -71.2330 -71.2330 -71.2194 -71.1865 -71.1701 -71.1701 -71.1467
   -41.3998 -41.3832 -41.3516 -41.3388 -36.2218 -36.1018 -35.9759 -35.8668
   -35.8668 -35.8375 -35.8375 -35.7557 -35.7557 -35.6699 -35.6699 -35.5475
   -35.5330 -35.5330 -35.5238 -35.4983 -35.4804 -35.4804 -35.4412 -35.4412
   -35.4237 -35.3678 -35.3343 -35.3343 -17.6148 -17.6148 -17.6148 -17.6148
   -17.6003 -17.5532 -17.4553 -17.4432 -17.4432 -17.4411 -17.4021 -17.4021
     9.3544  11.7854  12.0944  12.2011  12.5546  12.6496  12.9902  12.9902
    13.2999  13.2999  13.3292  13.3648  13.3763  13.3763  13.8521  13.8521
    13.9987  13.9987  14.3664  14.4047  14.4047  14.4629  14.4629  14.9416
    14.9416  15.2780  15.7828  15.7828  15.7926  15.7926  15.8297  15.8598
    15.8598  15.8963  15.8963  15.9296  15.9362  16.1184  16.1184  16.1436
    16.1436  16.2143  16.2143  16.4379  16.7204  16.7204  16.8953  17.1259
    17.1259  17.1467  17.1467  17.3594  17.3894  17.4316  17.4316  17.4450
    17.6016  17.6016

          k = 0.0000 0.0000 0.1030 (  1635 PWs)   bands (ev):

   -71.3378 -71.2525 -71.1770 -71.1638 -71.1638 -71.1608 -71.1608 -71.1465
   -41.3984 -41.3853 -41.3498 -41.3382 -36.2157 -36.1446 -35.9164 -35.8003
   -35.8003 -35.7757 -35.7757 -35.7616 -35.7616 -35.6127 -35.5858 -35.5858
   -35.5123 -35.5123 -35.4702 -35.4558 -35.4377 -35.4377 -35.3835 -35.3835
   -35.3823 -35.3273 -35.3273 -35.3232 -17.6098 -17.6098 -17.5983 -17.5983
   -17.5822 -17.5742 -17.4369 -17.4369 -17.4351 -17.4316 -17.4064 -17.4064
     9.4606  11.3448  12.1163  12.2523  12.7008  12.7703  13.0227  13.0227
    13.1866  13.3028  13.3028  13.4100  13.4100  13.4396  13.8425  13.8425
    13.9766  13.9766  14.2764  14.2764  14.5282  14.6872  14.6872  15.0053
    15.0053  15.3011  15.7041  15.7041  15.7156  15.7156  15.7599  15.8561
    15.8561  15.9430  15.9430  15.9957  16.0384  16.0583  16.0583  16.1602
    16.1602  16.3409  16.3409  16.4132  16.7765  16.7765  16.9041  17.1478
    17.1478  17.1725  17.1725  17.4000  17.4158  17.4158  17.4419  17.4506
    17.6094  17.6094

          k = 0.0000 0.0000 0.2061 (  1653 PWs)   bands (ev):

   -71.2837 -71.2650 -71.2331 -71.2308 -71.1963 -71.1963 -71.1785 -71.1785
   -41.3960 -41.3894 -41.3473 -41.3406 -36.2329 -36.1919 -35.8710 -35.8312
   -35.8312 -35.8245 -35.8245 -35.7762 -35.7762 -35.6953 -35.6953 -35.6631
   -35.4849 -35.4849 -35.4735 -35.4735 -35.4667 -35.4667 -35.4386 -35.4324
   -35.4229 -35.3853 -35.3853 -35.3535 -17.6193 -17.6193 -17.6133 -17.6133
   -17.5713 -17.5653 -17.4368 -17.4368 -17.4340 -17.4340 -17.4338 -17.4280
     9.7497  10.7083  12.0977  12.1623  12.8583  13.0381  13.0430  13.0708
    13.0708  13.2231  13.2231  13.4205  13.4686  13.4686  13.7063  13.7063
    13.9994  13.9994  14.1474  14.1474  14.9231  14.9231  14.9947  15.1499
    15.1499  15.3797  15.4866  15.4866  15.5215  15.5215  15.6710  15.8524
    15.8524  15.8912  15.8912  15.9965  15.9992  15.9992  16.0326  16.0385
    16.0385  16.2015  16.5767  16.5767  16.8699  16.8699  16.9904  17.0856
    17.0856  17.1025  17.1025  17.4077  17.4077  17.4139  17.4453  17.5643
    17.5643  18.6062

          k = 0.0000 0.0000-0.3091 (  1642 PWs)   bands (ev):

   -71.2650 -71.2650 -71.2060 -71.2060 -71.1779 -71.1779 -71.1779 -71.1779
   -41.3926 -41.3926 -41.3434 -41.3434 -36.2131 -36.2131 -35.8298 -35.8298
   -35.8298 -35.8298 -35.7289 -35.7289 -35.7289 -35.7289 -35.7205 -35.7205
   -35.4530 -35.4530 -35.4530 -35.4530 -35.4357 -35.4357 -35.4001 -35.4001
   -35.4001 -35.4001 -35.3702 -35.3702 -17.6149 -17.6149 -17.6149 -17.6149
   -17.5676 -17.5676 -17.4350 -17.4350 -17.4350 -17.4350 -17.4194 -17.4194
    10.1752  10.1752  12.1183  12.1183  12.9522  12.9522  13.1483  13.1483
    13.1483  13.1483  13.2797  13.2797  13.5779  13.5779  13.5779  13.5779
    14.0710  14.0710  14.0710  14.0710  15.1844  15.1844  15.1844  15.1844
    15.3662  15.3662  15.3662  15.3662  15.4265  15.4265  15.7540  15.7540
    15.8834  15.8834  15.8834  15.8834  16.0055  16.0055  16.0055  16.0055
    16.0124  16.0124  16.8307  16.8307  16.8307  16.8307  17.0389  17.0389
    17.0389  17.0389  17.2506  17.2506  17.5066  17.5066  17.5066  17.5066
    18.6643  18.6643

          k = 0.0000 0.1925 0.0000 (  1645 PWs)   bands (ev):

   -71.2880 -71.2227 -71.2205 -71.2126 -71.2017 -71.2016 -71.1691 -71.1620
   -41.3965 -41.3817 -41.3541 -41.3403 -36.2061 -36.0985 -35.9657 -35.8377
   -35.8190 -35.7918 -35.7830 -35.7612 -35.7595 -35.6355 -35.6350 -35.6032
   -35.5925 -35.5328 -35.4771 -35.4593 -35.4353 -35.4328 -35.4249 -35.4028
   -35.4013 -35.3805 -35.3779 -35.3767 -17.6256 -17.6136 -17.6039 -17.5964
   -17.5960 -17.5604 -17.4546 -17.4376 -17.4357 -17.4311 -17.4110 -17.4090
     9.6949  12.0082  12.2736  12.3622  12.6073  12.7027  13.0235  13.1128
    13.1396  13.2659  13.3791  13.4556  13.5513  13.5840  13.8319  13.9443
    14.0261  14.0880  14.3965  14.4222  14.4234  14.4341  14.5021  14.8382
    14.9173  15.1793  15.1802  15.3830  15.4623  15.5444  15.5802  15.7115
    15.7683  15.8195  15.8993  16.0336  16.1045  16.1154  16.1450  16.2072
    16.3364  16.4278  16.5033  16.5307  16.6552  16.7527  16.7897  16.9377
    17.0571  17.1079  17.1582  17.2249  17.3132  17.4390  17.5158  17.5574
    17.6892  17.8734

          k = 0.0000 0.1925 0.1030 (  1638 PWs)   bands (ev):

   -71.2913 -71.2196 -71.2026 -71.1901 -71.1877 -71.1828 -71.1760 -71.1616
   -41.3955 -41.3829 -41.3529 -41.3406 -36.1922 -36.1020 -35.9335 -35.8092
   -35.7971 -35.7907 -35.7595 -35.7476 -35.7399 -35.6474 -35.6465 -35.6011
   -35.5349 -35.5342 -35.4690 -35.4550 -35.4333 -35.4290 -35.4110 -35.4021
   -35.3855 -35.3844 -35.3602 -35.3469 -17.6238 -17.6162 -17.6004 -17.5996
   -17.5862 -17.5553 -17.4570 -17.4341 -17.4309 -17.4269 -17.4097 -17.4097
     9.7860  11.5875  12.2782  12.3756  12.7642  12.8262  13.0459  13.1310
    13.1357  13.2996  13.3880  13.4409  13.5370  13.5657  13.8559  13.9134
    13.9897  14.0680  14.2493  14.3120  14.5647  14.6560  14.6900  14.9210
    14.9775  15.1948  15.2004  15.3657  15.4374  15.5100  15.6077  15.7097
    15.7621  15.7750  15.8874  15.9500  16.0907  16.0943  16.1386  16.2541
    16.3179  16.3779  16.4797  16.4840  16.6352  16.8470  16.8581  16.9385
    17.0953  17.1631  17.2099  17.2353  17.3212  17.4531  17.4865  17.5183
    17.6833  17.8436

          k = 0.0000 0.1925 0.2061 (  1635 PWs)   bands (ev):

   -71.2750 -71.2317 -71.2089 -71.1928 -71.1905 -71.1714 -71.1599 -71.1577
   -41.3931 -41.3863 -41.3496 -41.3426 -36.1758 -36.1306 -35.8693 -35.8039
   -35.7914 -35.7820 -35.7652 -35.7284 -35.7168 -35.6741 -35.6707 -35.6548
   -35.5070 -35.5012 -35.4744 -35.4421 -35.4382 -35.4215 -35.4175 -35.3881
   -35.3765 -35.3745 -35.3596 -35.3350 -17.6178 -17.6162 -17.6081 -17.6068
   -17.5749 -17.5614 -17.4530 -17.4387 -17.4232 -17.4207 -17.4126 -17.4071
    10.0453  10.9886  12.2761  12.3138  12.9356  12.9455  13.0605  13.1879
    13.1958  13.3134  13.3554  13.3814  13.5346  13.5606  13.7501  13.8072
    14.0083  14.0747  14.1374  14.2004  14.8784  14.9259  14.9760  15.0608
    15.0735  15.2061  15.2360  15.3495  15.3635  15.4733  15.5788  15.6614
    15.7072  15.7935  15.8096  15.8530  15.9390  16.0131  16.1424  16.2304
    16.2409  16.2762  16.5385  16.6256  16.7034  16.8847  16.9134  16.9712
    17.1011  17.1353  17.2529  17.3159  17.3364  17.4351  17.4610  17.5542
    17.6101  17.7562

          k = 0.0000 0.1925-0.3091 (  1622 PWs)   bands (ev):

   -71.2536 -71.2536 -71.1803 -71.1803 -71.1599 -71.1599 -71.1327 -71.1327
   -41.3898 -41.3898 -41.3453 -41.3453 -36.1628 -36.1628 -35.7887 -35.7887
   -35.7716 -35.7716 -35.7221 -35.7221 -35.6947 -35.6947 -35.6690 -35.6690
   -35.4778 -35.4778 -35.4147 -35.4147 -35.4021 -35.4021 -35.3802 -35.3802
   -35.3544 -35.3544 -35.3070 -35.3070 -17.6124 -17.6124 -17.6039 -17.6039
   -17.5608 -17.5608 -17.4397 -17.4397 -17.4162 -17.4162 -17.4115 -17.4115
    10.4535  10.4535  12.2925  12.2925  12.9737  12.9737  13.1871  13.1871
    13.2787  13.2787  13.3203  13.3203  13.6153  13.6153  13.6709  13.6709
    14.0864  14.0864  14.1442  14.1442  15.0850  15.0850  15.1081  15.1081
    15.2373  15.2373  15.2912  15.2912  15.3955  15.3955  15.5655  15.5655
    15.7510  15.7510  15.8099  15.8099  15.8679  15.8679  16.1897  16.1897
    16.2122  16.2122  16.7473  16.7473  16.7722  16.7722  16.9864  16.9864
    17.0790  17.0790  17.2946  17.2946  17.3949  17.3949  17.5134  17.5134
    17.6646  17.6646

          k = 0.0000 0.3849 0.0000 (  1623 PWs)   bands (ev):

   -71.2276 -71.2117 -71.2011 -71.1979 -71.1816 -71.1736 -71.1561 -71.1244
   -41.3889 -41.3738 -41.3611 -41.3471 -36.1138 -36.0122 -35.9440 -35.7929
   -35.7628 -35.7621 -35.7491 -35.7230 -35.6697 -35.5891 -35.5865 -35.5551
   -35.5427 -35.5317 -35.5108 -35.4995 -35.4532 -35.4274 -35.3981 -35.3961
   -35.3749 -35.3484 -35.3159 -35.2806 -17.6231 -17.6157 -17.6122 -17.5935
   -17.5797 -17.5289 -17.4704 -17.4417 -17.4226 -17.4206 -17.3992 -17.3878
    10.5858  12.4546  12.6015  12.6346  12.8008  12.9296  12.9532  13.0651
    13.2980  13.3573  13.5641  13.6518  13.6760  13.8994  13.9041  14.0778
    14.2116  14.3557  14.3669  14.4542  14.4849  14.4874  14.5661  14.6244
    14.6569  14.8250  14.8553  14.8717  14.9812  15.1752  15.1895  15.3377
    15.4963  15.6748  15.9839  15.9952  16.0839  16.1109  16.1230  16.1799
    16.3500  16.4245  16.4775  16.6206  16.7286  16.8029  16.8612  16.8714
    16.9127  16.9347  17.0132  17.2759  17.3944  17.5013  17.6487  17.7370
    18.1264  18.2625

          k = 0.0000 0.3849 0.1030 (  1632 PWs)   bands (ev):

   -71.2393 -71.2191 -71.2094 -71.2089 -71.1853 -71.1799 -71.1763 -71.1541
   -41.3885 -41.3759 -41.3595 -41.3476 -36.1061 -36.0390 -35.9146 -35.8036
   -35.7827 -35.7551 -35.7369 -35.7261 -35.7034 -35.6348 -35.6270 -35.6062
   -35.5385 -35.5384 -35.5046 -35.4856 -35.4703 -35.4380 -35.4342 -35.4040
   -35.3992 -35.3787 -35.3562 -35.3482 -17.6264 -17.6151 -17.6101 -17.6070
   -17.5758 -17.5322 -17.4752 -17.4499 -17.4254 -17.4224 -17.4004 -17.3956
    10.6494  12.1854  12.5431  12.6262  12.8315  12.9626  13.0481  13.0503
    13.3333  13.3743  13.5750  13.6156  13.7945  13.8377  13.8694  14.0444
    14.1456  14.2716  14.3284  14.3714  14.4187  14.5761  14.6497  14.6630
    14.7316  14.8487  14.8824  14.9422  15.0077  15.1722  15.2274  15.3512
    15.5412  15.6673  15.8849  15.9831  15.9869  16.0814  16.1262  16.1674
    16.1868  16.4126  16.5323  16.6264  16.7095  16.7466  16.7668  16.8211
    16.9395  17.0013  17.1619  17.2049  17.3612  17.5490  17.6286  17.6739
    18.1347  18.1597

          k = 0.0000 0.3849 0.2061 (  1625 PWs)   bands (ev):

   -71.2251 -71.2134 -71.2022 -71.1910 -71.1872 -71.1690 -71.1565 -71.1503
   -41.3864 -41.3795 -41.3557 -41.3492 -36.0927 -36.0604 -35.8714 -35.8130
   -35.7541 -35.7475 -35.7361 -35.6843 -35.6788 -35.6544 -35.6413 -35.6256
   -35.5246 -35.5111 -35.4830 -35.4778 -35.4531 -35.4293 -35.4147 -35.3950
   -35.3722 -35.3634 -35.3629 -35.2919 -17.6278 -17.6184 -17.6112 -17.6105
   -17.5638 -17.5398 -17.4645 -17.4540 -17.4127 -17.4058 -17.4010 -17.3965
    10.8879  11.6967  12.5307  12.5903  12.8678  12.9935  13.0932  13.1221
    13.4138  13.4140  13.5538  13.5848  13.8047  13.8305  13.8749  13.9865
    14.0298  14.1662  14.2897  14.3645  14.4947  14.6789  14.7091  14.7424
    14.8148  14.8422  14.9504  15.0042  15.2064  15.2634  15.3139  15.4995
    15.6299  15.6780  15.7725  15.8454  15.8699  15.9859  16.0367  16.1030
    16.1716  16.3069  16.5550  16.6306  16.6802  16.7371  16.8016  16.8985
    16.9086  17.0845  17.1221  17.2800  17.3091  17.5672  17.5888  17.7835
    17.9853  18.0375

          k = 0.0000 0.3849-0.3091 (  1626 PWs)   bands (ev):

   -71.2189 -71.2189 -71.2000 -71.2000 -71.1705 -71.1705 -71.1645 -71.1645
   -41.3832 -41.3832 -41.3523 -41.3523 -36.0677 -36.0677 -35.8313 -35.8313
   -35.7423 -35.7423 -35.7282 -35.7282 -35.6614 -35.6614 -35.6450 -35.6450
   -35.5043 -35.5043 -35.4720 -35.4720 -35.4278 -35.4278 -35.4129 -35.4129
   -35.3838 -35.3838 -35.3656 -35.3656 -17.6220 -17.6220 -17.6150 -17.6150
   -17.5549 -17.5548 -17.4570 -17.4570 -17.4058 -17.4058 -17.4011 -17.4011
    11.2417  11.2417  12.5520  12.5520  12.9356  12.9356  13.1422  13.1422
    13.4670  13.4670  13.5129  13.5129  13.8107  13.8107  13.8894  13.8894
    14.0771  14.0771  14.3154  14.3154  14.6653  14.6653  14.7648  14.7648
    14.7875  14.7875  15.0104  15.0104  15.2625  15.2625  15.6130  15.6130
    15.6600  15.6600  15.7321  15.7321  15.8157  15.8157  15.9822  15.9822
    16.2305  16.2305  16.6510  16.6510  16.6610  16.6610  16.8133  16.8133
    17.0034  17.0034  17.1760  17.1760  17.4438  17.4438  17.7504  17.7504
    17.9248  17.9248

          k = 0.0000-0.5774 0.0000 (  1610 PWs)   bands (ev):

   -71.2272 -71.2078 -71.1919 -71.1716 -71.1664 -71.1641 -71.1342 -71.1202
   -41.3834 -41.3675 -41.3665 -41.3522 -36.0658 -35.9640 -35.9000 -35.8073
   -35.7589 -35.7277 -35.6788 -35.6570 -35.6461 -35.6248 -35.5680 -35.5593
   -35.5492 -35.5111 -35.4853 -35.4666 -35.4626 -35.4323 -35.4153 -35.3782
   -35.3665 -35.3395 -35.3218 -35.2558 -17.6263 -17.6174 -17.6147 -17.5887
   -17.5519 -17.5157 -17.4883 -17.4402 -17.4290 -17.4127 -17.3868 -17.3829
    11.6635  11.9174  12.5831  12.7187  12.9194  13.1283  13.1796  13.2411
    13.3600  13.4186  13.7062  13.7255  13.7265  14.0584  14.0716  14.0846
    14.1372  14.1642  14.4121  14.6019  14.6266  14.7053  14.7078  14.7238
    14.7356  14.7356  14.7435  14.7550  14.8173  14.8224  14.8869  15.0304
    15.0815  15.3470  15.7965  16.0144  16.0495  16.0667  16.1346  16.1371
    16.2034  16.2445  16.4237  16.5583  16.6708  16.6858  16.9228  17.0524
    17.0756  17.2062  17.2894  17.4817  17.5381  17.5430  17.5860  17.7738
    17.8897  18.2058

          k = 0.0000-0.5774 0.1030 (  1612 PWs)   bands (ev):

   -71.2142 -71.2105 -71.1939 -71.1792 -71.1637 -71.1619 -71.1409 -71.1264
   -41.3827 -41.3711 -41.3633 -41.3526 -36.0645 -35.9868 -35.8812 -35.8087
   -35.7411 -35.7040 -35.7038 -35.6359 -35.6207 -35.6042 -35.5792 -35.5591
   -35.5379 -35.5026 -35.5009 -35.4890 -35.4633 -35.4444 -35.4073 -35.3791
   -35.3670 -35.3623 -35.3356 -35.2796 -17.6277 -17.6183 -17.6086 -17.5982
   -17.5516 -17.5273 -17.4804 -17.4422 -17.4163 -17.4116 -17.3892 -17.3844
    11.7198  11.9510  12.6048  12.6852  12.7875  13.0318  13.2125  13.2406
    13.3542  13.4451  13.6851  13.7193  13.7716  14.0482  14.0753  14.1011
    14.1041  14.2260  14.4000  14.4079  14.4235  14.6302  14.6964  14.7477
    14.7763  14.7894  14.8200  14.8274  14.8988  14.9065  15.0063  15.0068
    15.0978  15.4059  15.8029  15.9655  16.0369  16.0408  16.0974  16.1115
    16.1507  16.1997  16.5162  16.6245  16.6722  16.6967  16.7942  17.0064
    17.0656  17.2857  17.3032  17.3684  17.4085  17.5603  17.7081  17.8093
    17.9294  18.1441

          k = 0.0000-0.5774 0.2061 (  1608 PWs)   bands (ev):

   -71.2141 -71.2044 -71.1766 -71.1699 -71.1672 -71.1485 -71.1319 -71.1201
   -41.3808 -41.3746 -41.3595 -41.3545 -36.0428 -36.0178 -35.8484 -35.8143
   -35.7397 -35.7357 -35.6816 -35.6404 -35.6132 -35.6081 -35.5699 -35.5584
   -35.4981 -35.4855 -35.4814 -35.4709 -35.4283 -35.4248 -35.4145 -35.3861
   -35.3794 -35.3425 -35.3341 -35.2303 -17.6234 -17.6144 -17.6140 -17.6109
   -17.5408 -17.5332 -17.4621 -17.4434 -17.4107 -17.3980 -17.3942 -17.3886
    11.9045  12.0624  12.5071  12.5293  12.6609  12.8983  13.2465  13.3042
    13.3930  13.5496  13.5630  13.7248  13.8764  14.0235  14.0258  14.0855
    14.1502  14.1822  14.2687  14.3834  14.4526  14.5489  14.6844  14.7500
    14.7667  14.8477  14.8601  14.8628  14.8802  14.9380  15.0817  15.1681
    15.3528  15.5819  15.8184  15.8609  15.9457  15.9776  15.9796  16.0084
    16.1700  16.1701  16.6234  16.6317  16.6403  16.7156  16.7975  16.8633
    16.9730  17.1946  17.3204  17.3643  17.4304  17.6596  17.7370  17.9068
    18.0606  18.1453

          k = 0.0000-0.5774-0.3091 (  1616 PWs)   bands (ev):

   -71.2033 -71.2033 -71.1790 -71.1790 -71.1682 -71.1682 -71.1456 -71.1456
   -41.3784 -41.3784 -41.3567 -41.3567 -36.0472 -36.0472 -35.8108 -35.8108
   -35.7508 -35.7508 -35.6790 -35.6790 -35.6186 -35.6186 -35.5695 -35.5695
   -35.5474 -35.5474 -35.4749 -35.4749 -35.4367 -35.4367 -35.3819 -35.3819
   -35.3465 -35.3465 -35.3446 -35.3446 -17.6200 -17.6200 -17.6097 -17.6097
   -17.5434 -17.5434 -17.4563 -17.4563 -17.4040 -17.4040 -17.3962 -17.3962
    12.1052  12.1052  12.3553  12.3553  12.7675  12.7675  13.3301  13.3301
    13.4147  13.4147  13.6607  13.6607  13.9617  13.9617  14.0283  14.0283
    14.0698  14.0698  14.3856  14.3856  14.4669  14.4669  14.6941  14.6941
    14.8411  14.8411  14.8482  14.8482  14.8576  14.8576  15.1718  15.1718
    15.6793  15.6793  15.7613  15.7613  15.8600  15.8600  15.9275  15.9275
    16.1827  16.1827  16.6107  16.6107  16.7621  16.7621  16.7853  16.7853
    16.9700  16.9700  17.3416  17.3416  17.5836  17.5836  17.8258  17.8258
    18.0432  18.0432

          k = 0.1667 0.2887 0.0000 (  1627 PWs)   bands (ev):

   -71.2264 -71.2197 -71.2068 -71.1877 -71.1785 -71.1743 -71.1617 -71.1468
   -41.3909 -41.3761 -41.3591 -41.3449 -36.1070 -36.0032 -35.9378 -35.8010
   -35.7770 -35.7536 -35.7404 -35.7326 -35.6823 -35.6154 -35.5780 -35.5597
   -35.5525 -35.5072 -35.4940 -35.4578 -35.4525 -35.4478 -35.4393 -35.4344
   -35.3837 -35.3703 -35.3523 -35.2984 -17.6249 -17.6110 -17.6076 -17.5973
   -17.5849 -17.5349 -17.4643 -17.4468 -17.4225 -17.4213 -17.4039 -17.3895
    10.3037  12.4012  12.5520  12.5779  12.7485  12.8598  12.9774  13.0120
    13.1701  13.4083  13.5558  13.6263  13.7358  13.7781  13.8556  13.9976
    14.0598  14.2908  14.3413  14.4574  14.4758  14.5496  14.6398  14.7097
    14.7111  14.8420  14.8754  15.0880  15.1071  15.1812  15.2862  15.5611
    15.6111  15.6907  15.8711  15.8936  15.8962  16.1149  16.2691  16.3400
    16.3482  16.5089  16.5379  16.5913  16.6728  16.7677  16.8556  16.9256
    16.9720  17.0234  17.2314  17.2351  17.2472  17.3197  17.7783  17.7850
    17.8414  18.0454

          k = 0.1667 0.2887 0.1030 (  1637 PWs)   bands (ev):

   -71.2367 -71.2352 -71.2126 -71.2006 -71.1993 -71.1874 -71.1765 -71.1703
   -41.3905 -41.3779 -41.3577 -41.3457 -36.1339 -36.0564 -35.9348 -35.8229
   -35.7792 -35.7759 -35.7464 -35.7293 -35.7009 -35.6438 -35.6393 -35.6318
   -35.5392 -35.5278 -35.4885 -35.4816 -35.4584 -35.4368 -35.4317 -35.4223
   -35.4080 -35.3979 -35.3824 -35.3386 -17.6264 -17.6156 -17.6136 -17.6089
   -17.5785 -17.5414 -17.4705 -17.4521 -17.4223 -17.4223 -17.4039 -17.3977
    10.3803  12.0144  12.5405  12.5892  12.8186  12.9341  12.9695  13.0767
    13.2251  13.3625  13.5496  13.6189  13.7069  13.8009  13.8309  13.9959
    14.0373  14.1901  14.2542  14.3714  14.5118  14.6077  14.7103  14.7533
    14.8604  14.8840  14.8959  15.1042  15.1609  15.1836  15.2919  15.5529
    15.6014  15.6977  15.7990  15.8424  15.8935  16.1111  16.1774  16.2604
    16.2822  16.4454  16.4813  16.6171  16.6911  16.7808  16.8416  16.8861
    16.9989  17.0934  17.1898  17.2672  17.2701  17.3451  17.6206  17.7395
    17.9284  17.9501

          k = 0.1667 0.2887 0.2061 (  1632 PWs)   bands (ev):

   -71.2353 -71.2247 -71.2154 -71.1954 -71.1941 -71.1861 -71.1598 -71.1533
   -41.3884 -41.3815 -41.3542 -41.3473 -36.1133 -36.0840 -35.8886 -35.7984
   -35.7884 -35.7627 -35.7621 -35.7058 -35.7022 -35.6697 -35.6529 -35.6338
   -35.5026 -35.5003 -35.4718 -35.4584 -35.4555 -35.4367 -35.4350 -35.4132
   -35.4054 -35.3904 -35.3610 -35.3186 -17.6272 -17.6174 -17.6120 -17.6097
   -17.5701 -17.5453 -17.4612 -17.4543 -17.4166 -17.4120 -17.4062 -17.4012
    10.6170  11.4820  12.5351  12.5419  12.9360  12.9453  13.0276  13.1518
    13.3431  13.3478  13.5414  13.5532  13.7008  13.7461  13.8310  13.9448
    14.0553  14.1156  14.2112  14.2711  14.5927  14.8132  14.8167  14.8318
    14.8866  14.8967  15.1091  15.1844  15.2140  15.3197  15.3310  15.5291
    15.6561  15.6808  15.7066  15.7792  15.8562  16.0080  16.0420  16.0948
    16.3206  16.3999  16.5460  16.6276  16.6382  16.7857  16.7902  16.8693
    17.0262  17.1848  17.2031  17.3104  17.3446  17.3904  17.5432  17.7024
    17.8016  17.9312

          k = 0.1667 0.2887-0.3091 (  1626 PWs)   bands (ev):

   -71.2353 -71.2353 -71.1832 -71.1832 -71.1749 -71.1749 -71.1537 -71.1537
   -41.3852 -41.3852 -41.3502 -41.3502 -36.1053 -36.1053 -35.8159 -35.8159
   -35.7409 -35.7409 -35.7258 -35.7258 -35.6754 -35.6754 -35.6619 -35.6619
   -35.5056 -35.5056 -35.5016 -35.5016 -35.3988 -35.3988 -35.3871 -35.3871
   -35.3734 -35.3734 -35.3345 -35.3345 -17.6181 -17.6181 -17.6068 -17.6068
   -17.5595 -17.5595 -17.4576 -17.4576 -17.4090 -17.4090 -17.4023 -17.4023
    10.9895  10.9895  12.5353  12.5353  12.9753  12.9753  13.1002  13.1002
    13.4185  13.4185  13.4851  13.4851  13.7285  13.7285  13.8273  13.8273
    14.1033  14.1033  14.2370  14.2370  14.7132  14.7132  14.8794  14.8794
    14.9865  14.9865  15.1274  15.1274  15.3352  15.3352  15.5118  15.5118
    15.6559  15.6559  15.7578  15.7578  15.8061  15.8061  16.0173  16.0173
    16.4038  16.4038  16.5932  16.5932  16.6578  16.6578  16.8217  16.8217
    17.1203  17.1203  17.2759  17.2759  17.4237  17.4237  17.5749  17.5749
    17.8120  17.8120

          k = 0.1667 0.4811 0.0000 (  1622 PWs)   bands (ev):

   -71.2227 -71.2088 -71.2038 -71.1983 -71.1872 -71.1634 -71.1575 -71.1327
   -41.3831 -41.3683 -41.3668 -41.3526 -36.0398 -35.9724 -35.9375 -35.8066
   -35.7464 -35.7439 -35.7036 -35.6584 -35.6315 -35.6131 -35.5914 -35.5855
   -35.5589 -35.5302 -35.5030 -35.4970 -35.4605 -35.4480 -35.4346 -35.4130
   -35.3956 -35.3706 -35.3447 -35.3237 -17.6281 -17.6196 -17.6134 -17.6000
   -17.5582 -17.5043 -17.5030 -17.4553 -17.4182 -17.4102 -17.3925 -17.3906
    11.3448  12.4559  12.6679  12.8444  12.9366  12.9540  13.0005  13.0909
    13.3813  13.4012  13.7385  13.7772  13.8961  13.9625  13.9904  14.0927
    14.1266  14.2548  14.3028  14.4649  14.5123  14.5182  14.5194  14.6378
    14.7013  14.7297  14.7447  14.7579  14.7898  15.0091  15.0407  15.1921
    15.2943  15.3558  15.6917  15.7163  15.9359  15.9920  16.1193  16.2775
    16.3216  16.4239  16.5375  16.6050  16.6116  16.8327  16.9670  17.0021
    17.0823  17.0975  17.2545  17.2620  17.4495  17.4568  17.7072  17.8827
    18.0808  18.1114

          k = 0.1667 0.4811 0.1030 (  1616 PWs)   bands (ev):

   -71.2134 -71.2030 -71.1955 -71.1810 -71.1760 -71.1673 -71.1421 -71.1357
   -41.3825 -41.3714 -41.3633 -41.3530 -36.0307 -35.9819 -35.9103 -35.8057
   -35.7598 -35.7341 -35.7038 -35.6495 -35.6349 -35.6102 -35.5951 -35.5471
   -35.5420 -35.5056 -35.4832 -35.4708 -35.4642 -35.4307 -35.4166 -35.3958
   -35.3871 -35.3754 -35.3412 -35.2844 -17.6237 -17.6187 -17.6087 -17.6008
   -17.5550 -17.5159 -17.4846 -17.4545 -17.4154 -17.4077 -17.3931 -17.3907
    11.4195  12.4605  12.6328  12.7447  12.8793  12.9578  12.9874  13.1708
    13.3935  13.4484  13.6851  13.8305  13.9316  13.9544  14.0369  14.0825
    14.1403  14.1685  14.2770  14.3581  14.4474  14.5131  14.5477  14.6010
    14.6839  14.7749  14.8178  14.8635  14.9361  15.0534  15.1234  15.1765
    15.3177  15.3604  15.7052  15.7295  15.9013  15.9797  16.1120  16.2362
    16.2920  16.3382  16.5589  16.5818  16.6743  16.8123  16.9255  17.0001
    17.0934  17.1248  17.2287  17.2784  17.3515  17.5333  17.6413  17.9693
    17.9912  18.1853

          k = 0.1667 0.4811 0.2061 (  1615 PWs)   bands (ev):

   -71.2164 -71.2008 -71.1933 -71.1797 -71.1702 -71.1684 -71.1439 -71.1242
   -41.3808 -41.3751 -41.3598 -41.3545 -36.0159 -36.0061 -35.8731 -35.8114
   -35.7456 -35.7238 -35.7105 -35.6523 -35.6451 -35.6219 -35.5998 -35.5414
   -35.5254 -35.5139 -35.4751 -35.4557 -35.4508 -35.4340 -35.4077 -35.4065
   -35.3939 -35.3750 -35.3222 -35.3034 -17.6192 -17.6168 -17.6128 -17.6089
   -17.5504 -17.5299 -17.4687 -17.4551 -17.4102 -17.4024 -17.3941 -17.3932
    11.6074  12.2477  12.5762  12.7263  12.8150  12.9037  13.0665  13.1930
    13.4197  13.5548  13.6198  13.7993  13.9294  13.9760  14.0221  14.0607
    14.1020  14.1762  14.2349  14.3433  14.4053  14.4573  14.5218  14.5679
    14.7413  14.8048  14.8924  14.9400  14.9861  15.0993  15.2133  15.3174
    15.3503  15.4906  15.6959  15.7414  15.7940  15.9007  16.0563  16.1058
    16.2388  16.2545  16.5693  16.5951  16.6562  16.8155  16.8769  16.9833
    17.0613  17.1040  17.2557  17.2753  17.2940  17.5009  17.6790  17.8681
    18.0458  18.2272

          k = 0.1667 0.4811-0.3091 (  1616 PWs)   bands (ev):

   -71.2067 -71.2067 -71.1820 -71.1820 -71.1590 -71.1590 -71.1497 -71.1497
   -41.3782 -41.3782 -41.3569 -41.3569 -36.0046 -36.0046 -35.8295 -35.8295
   -35.7250 -35.7250 -35.6963 -35.6963 -35.6465 -35.6465 -35.5653 -35.5653
   -35.5212 -35.5212 -35.4512 -35.4512 -35.4350 -35.4350 -35.4011 -35.4011
   -35.3764 -35.3764 -35.3576 -35.3576 -17.6204 -17.6204 -17.6115 -17.6115
   -17.5409 -17.5409 -17.4585 -17.4584 -17.4045 -17.4045 -17.3963 -17.3963
    11.8943  11.8943  12.6549  12.6549  12.8471  12.8471  13.1573  13.1573
    13.4934  13.4934  13.7024  13.7024  13.9387  13.9387  14.0027  14.0027
    14.1500  14.1500  14.3130  14.3130  14.4426  14.4426  14.5171  14.5171
    14.8105  14.8105  14.9145  14.9145  15.0229  15.0229  15.3294  15.3294
    15.5614  15.5614  15.6970  15.6970  15.7824  15.7824  15.9916  15.9916
    16.2177  16.2177  16.5824  16.5824  16.7182  16.7182  16.9200  16.9200
    17.0901  17.0901  17.2566  17.2566  17.4012  17.4012  17.7638  17.7638
    18.1056  18.1056

          k = 0.3333 0.5774 0.0000 (  1632 PWs)   bands (ev):

   -71.2623 -71.2083 -71.1976 -71.1976 -71.1950 -71.1921 -71.1724 -71.1724
   -41.3749 -41.3749 -41.3610 -41.3610 -36.0126 -35.9436 -35.8951 -35.8951
   -35.7772 -35.7087 -35.7087 -35.6751 -35.6751 -35.5997 -35.5997 -35.5862
   -35.5732 -35.5732 -35.5514 -35.5155 -35.5155 -35.5149 -35.4543 -35.4543
   -35.4448 -35.3990 -35.3990 -35.2770 -17.6300 -17.6212 -17.6124 -17.6124
   -17.5427 -17.5427 -17.4823 -17.4823 -17.4051 -17.4051 -17.4049 -17.4015
    12.2544  12.4218  12.4218  12.7973  12.7973  13.0842  13.1749  13.1749
    13.2347  13.4393  13.9086  13.9086  14.0066  14.0066  14.0898  14.0898
    14.1234  14.2038  14.2654  14.2654  14.3250  14.4105  14.4989  14.4989
    14.5418  14.6022  14.6022  14.7964  14.7964  15.0624  15.0624  15.1477
    15.2057  15.3039  15.6505  15.6505  15.9054  15.9054  15.9286  16.1695
    16.4796  16.4796  16.5332  16.5332  16.9189  16.9189  16.9508  16.9508
    17.0645  17.1374  17.2123  17.3289  17.3289  17.5374  17.8355  17.8355
    17.8854  17.8854

          k = 0.3333 0.5774 0.1030 (  1614 PWs)   bands (ev):

   -71.2472 -71.1844 -71.1739 -71.1739 -71.1567 -71.1549 -71.1491 -71.1491
   -41.3744 -41.3744 -41.3607 -41.3607 -35.9901 -35.9416 -35.8781 -35.8781
   -35.7410 -35.6899 -35.6899 -35.6567 -35.6567 -35.6007 -35.6007 -35.5439
   -35.5145 -35.5145 -35.5052 -35.4839 -35.4839 -35.4332 -35.4256 -35.4256
   -35.4179 -35.3473 -35.3473 -35.1905 -17.6194 -17.6170 -17.6048 -17.6048
   -17.5360 -17.5360 -17.4758 -17.4758 -17.4027 -17.3970 -17.3944 -17.3944
    12.3181  12.4615  12.4615  12.7942  12.7942  13.0142  13.1507  13.1507
    13.2704  13.5394  13.9489  13.9489  14.0221  14.0551  14.0551  14.1101
    14.1101  14.1233  14.2550  14.2550  14.3911  14.3911  14.3922  14.4255
    14.5761  14.5761  14.5928  14.9604  14.9604  15.0727  15.0727  15.1256
    15.2829  15.3858  15.6281  15.6281  15.9273  15.9850  15.9850  16.1169
    16.3981  16.3981  16.5566  16.5566  16.8631  16.8631  17.0324  17.0324
    17.0441  17.1151  17.2292  17.3234  17.3234  17.5499  17.8670  17.8670
    17.8962  17.8962

          k = 0.3333 0.5774 0.2061 (  1617 PWs)   bands (ev):

   -71.2098 -71.2009 -71.1781 -71.1781 -71.1759 -71.1563 -71.1557 -71.1557
   -41.3745 -41.3745 -41.3608 -41.3608 -35.9439 -35.9188 -35.8673 -35.8673
   -35.7458 -35.6920 -35.6920 -35.6594 -35.6594 -35.6387 -35.6102 -35.6102
   -35.5070 -35.5070 -35.4715 -35.4715 -35.4639 -35.4450 -35.3970 -35.3961
   -35.3961 -35.3764 -35.3764 -35.3544 -17.6192 -17.6143 -17.6130 -17.6130
   -17.5310 -17.5310 -17.4766 -17.4766 -17.4019 -17.3983 -17.3983 -17.3980
    12.4321  12.5300  12.5300  12.7434  12.7434  12.7982  13.1169  13.1169
    13.3644  13.6370  13.8914  13.9878  13.9878  14.0787  14.0943  14.0943
    14.1674  14.1674  14.1929  14.1929  14.2890  14.2890  14.3452  14.3664
    14.5411  14.5411  14.7508  14.9992  14.9992  15.0336  15.2576  15.2576
    15.4577  15.4973  15.5341  15.5341  15.8386  15.9655  16.0754  16.0754
    16.2119  16.2119  16.5430  16.5430  16.8176  16.8176  16.9841  16.9959
    17.0577  17.0577  17.2609  17.2609  17.2817  17.4814  17.8472  17.8472
    17.9148  17.9148

          k = 0.3333 0.5774-0.3091 (  1596 PWs)   bands (ev):

   -71.1849 -71.1849 -71.1767 -71.1767 -71.1253 -71.1253 -71.1196 -71.1196
   -41.3741 -41.3741 -41.3601 -41.3601 -35.8815 -35.8815 -35.8646 -35.8646
   -35.6752 -35.6752 -35.6671 -35.6671 -35.6394 -35.6394 -35.5759 -35.5759
   -35.4394 -35.4394 -35.4108 -35.4108 -35.4049 -35.4049 -35.4035 -35.4035
   -35.3426 -35.3426 -35.3411 -35.3411 -17.6114 -17.6114 -17.6106 -17.6106
   -17.5221 -17.5221 -17.4624 -17.4624 -17.3946 -17.3946 -17.3938 -17.3938
    12.6173  12.6173  12.6221  12.6221  12.6885  12.6885  13.1080  13.1080
    13.5140  13.5140  13.9813  13.9813  13.9952  13.9952  14.1201  14.1201
    14.1424  14.1424  14.2482  14.2482  14.3110  14.3110  14.3207  14.3207
    14.5195  14.5195  14.9315  14.9315  14.9702  14.9702  15.4173  15.4173
    15.5047  15.5047  15.6069  15.6069  15.8048  15.8048  16.0986  16.0986
    16.1408  16.1408  16.5823  16.5823  16.7994  16.7994  16.9591  16.9591
    17.1668  17.1668  17.2075  17.2075  17.4019  17.4019  17.8601  17.8601
    17.9459  17.9459

     the Fermi energy is    16.2054 ev

!    total energy              =   -3106.26769866 Ry
     estimated scf accuracy    <          1.5E-09 Ry
     smearing contrib. (-TS)   =       0.00031817 Ry
     internal energy E=F+TS    =   -3106.26801683 Ry

     The total energy is F=E-TS. E is the sum of the following terms:
     one-electron contribution =   -1195.85945588 Ry
     hartree contribution      =     691.43614148 Ry
     xc contribution           =    -351.45661232 Ry
     ewald contribution        =   -1642.60130615 Ry
     one-center paw contrib.   =    -607.78678396 Ry

     convergence has been achieved in  31 iterations

     negative rho (up, down):  2.476E-02 0.000E+00

     Forces acting on atoms (cartesian axes, Ry/au):

     atom    1 type  1   force =     0.01211732   -0.00699594   -0.00000000
     atom    2 type  1   force =    -0.01211732    0.00699594    0.00000000
     atom    3 type  1   force =     0.00000000   -0.01399187   -0.00000000
     atom    4 type  1   force =    -0.01211732   -0.00699594   -0.00000000
     atom    5 type  1   force =    -0.00000000    0.01399187    0.00000000
     atom    6 type  1   force =     0.01211732    0.00699594    0.00000000
     atom    7 type  1   force =     0.00000000   -0.00000000    0.00000000
     atom    8 type  1   force =     0.00000000   -0.00000000   -0.00000000
     atom    9 type  2   force =     0.00000000   -0.00000000    0.02304412
     atom   10 type  2   force =     0.00000000    0.00000000    0.02304412
     atom   11 type  2   force =     0.00000000    0.00000000   -0.02304412
     atom   12 type  2   force =    -0.00000000   -0.00000000   -0.02304412

     Total force =     0.057435     Total SCF correction =     0.000115


     Computing stress (Cartesian axis) and pressure


     negative rho (up, down):  2.476E-02 0.000E+00
          total   stress  (Ry/bohr**3)                   (kbar)     P=    -1999.10
  -0.01355225  -0.00000000   0.00000000        -1993.60       -0.00        0.00
  -0.00000000  -0.01355225   0.00000000           -0.00    -1993.60        0.00
   0.00000000   0.00000000  -0.01366430            0.00        0.00    -2010.09


     Writing all to output data dir ./FeAl.save/ :
     XML data file, charge density, pseudopotentials, collected wavefunctions

     init_run     :      1.30s CPU      1.48s WALL (       1 calls)
     electrons    :     78.62s CPU     80.10s WALL (       1 calls)
     forces       :      0.14s CPU      0.14s WALL (       1 calls)
     stress       :      0.47s CPU      0.47s WALL (       1 calls)

     Called by init_run:
     wfcinit      :      0.84s CPU      0.93s WALL (       1 calls)
     potinit      :      0.23s CPU      0.31s WALL (       1 calls)
     hinit0       :      0.22s CPU      0.22s WALL (       1 calls)

     Called by electrons:
     c_bands      :     67.84s CPU     68.78s WALL (      31 calls)
     sum_band     :      5.11s CPU      5.26s WALL (      31 calls)
     v_of_rho     :      0.04s CPU      0.04s WALL (      32 calls)
     newd         :      0.18s CPU      0.20s WALL (      32 calls)
     PAW_pot      :      5.57s CPU      5.98s WALL (      32 calls)
     mix_rho      :      0.02s CPU      0.02s WALL (      31 calls)

     Called by c_bands:
     init_us_2    :      0.15s CPU      0.15s WALL (    1820 calls)
     cegterg      :     66.70s CPU     67.59s WALL (     868 calls)

     Called by *egterg:
     cdiaghg      :     36.80s CPU     37.01s WALL (    3020 calls)
     h_psi        :     20.95s CPU     21.67s WALL (    3048 calls)
     s_psi        :      1.16s CPU      1.17s WALL (    3048 calls)
     g_psi        :      0.04s CPU      0.05s WALL (    2152 calls)

     Called by h_psi:
     h_psi:calbec :      2.49s CPU      2.54s WALL (    3048 calls)
     vloc_psi     :     17.21s CPU     17.86s WALL (    3048 calls)
     add_vuspsi   :      1.21s CPU      1.22s WALL (    3048 calls)

     General routines
     calbec       :      3.87s CPU      3.95s WALL (    4392 calls)
     fft          :      0.23s CPU      0.23s WALL (     439 calls)
     ffts         :      0.07s CPU      0.07s WALL (      63 calls)
     fftw         :     19.44s CPU     20.16s WALL (  522968 calls)
     interpolate  :      0.07s CPU      0.07s WALL (      32 calls)

     Parallel routines

     PWSCF        :     81.01s CPU     84.59s WALL


   This run was terminated on:  14:35:13  27Oct2025            

=------------------------------------------------------------------------------=
   JOB DONE.
=------------------------------------------------------------------------------=
Note: The following floating-point exceptions are signalling: IEEE_UNDERFLOW_FLAG IEEE_DENORMAL
Note: The following floating-point exceptions are signalling: IEEE_UNDERFLOW_FLAG IEEE_DENORMAL
Note: The following floating-point exceptions are signalling: IEEE_UNDERFLOW_FLAG IEEE_DENORMAL
Note: The following floating-point exceptions are signalling: IEEE_UNDERFLOW_FLAG IEEE_DENORMAL
Note: The following floating-point exceptions are signalling: IEEE_UNDERFLOW_FLAG IEEE_DENORMAL
Note: The following floating-point exceptions are signalling: IEEE_UNDERFLOW_FLAG IEEE_DENORMAL
Note: The following floating-point exceptions are signalling: IEEE_UNDERFLOW_FLAG IEEE_DENORMAL
Note: The following floating-point exceptions are signalling: IEEE_UNDERFLOW_FLAG IEEE_DENORMAL
Note: The following floating-point exceptions are signalling: IEEE_UNDERFLOW_FLAG IEEE_DENORMAL
Note: The following floating-point exceptions are signalling: IEEE_UNDERFLOW_FLAG IEEE_DENORMAL
Note: The following floating-point exceptions are signalling: IEEE_UNDERFLOW_FLAG IEEE_DENORMAL
Note: The following floating-point exceptions are signalling: IEEE_UNDERFLOW_FLAG IEEE_DENORMAL
Note: The following floating-point exceptions are signalling: IEEE_UNDERFLOW_FLAG IEEE_DENORMAL
Note: The following floating-point exceptions are signalling: IEEE_UNDERFLOW_FLAG IEEE_DENORMAL
Note: The following floating-point exceptions are signalling: IEEE_UNDERFLOW_FLAG IEEE_DENORMAL
Note: The following floating-point exceptions are signalling: IEEE_UNDERFLOW_FLAG IEEE_DENORMAL
