
     Program PWSCF v.7.4.1 starts on 31Oct2025 at 22: 6:24 

     This program is part of the open-source Quantum ESPRESSO suite
     for quantum simulation of materials; please cite
         "P. Giannozzi et al., J. Phys.:Condens. Matter 21 395502 (2009);
         "P. Giannozzi et al., J. Phys.:Condens. Matter 29 465901 (2017);
         "P. Giannozzi et al., J. Chem. Phys. 152 154105 (2020);
          URL http://www.quantum-espresso.org", 
     in publications or presentations arising from this work. More details at
     http://www.quantum-espresso.org/quote

     Parallel version (MPI), running on     6 processors

     MPI processes distributed on     1 nodes
     572 MiB available memory on the printing compute node when the environment starts

     Reading input from TiFe18.in

     Current dimensions of program PWSCF are:
     Max number of different atomic species (ntypx) = 10
     Max number of k-points (npk) =  40000
     Max angular momentum in pseudopotentials (lmaxx) =  4
     file Fe.pbe-spn-kjpaw_psl.0.2.1.UPF: wavefunction(s)  3D renormalized

     IMPORTANT: XC functional enforced from input :
     Exchange-correlation= PBE
                           (   1   4   3   4   0   0   0)
     Any further DFT definition will be discarded
     Please, verify this is what you really want

     Message from routine setup:
     using ibrav=0 with symmetry is DISCOURAGED, use correct ibrav instead

     R & G space division:  proc/nbgrp/npool/nimage =       6
     Subspace diagonalization in iterative solution of the eigenvalue problem:
     a serial algorithm will be used


     Parallelization info
     --------------------
     sticks:   dense  smooth     PW     G-vecs:    dense   smooth      PW
     Min         494     200     58                20310     5170     824
     Max         495     201     59                20315     5173     825
     Sum        2965    1201    349               121865    31031    4945

     Using Slab Decomposition



     bravais-lattice index     =            0
     lattice parameter (alat)  =       5.1646  a.u.
     unit-cell volume          =     137.7534 (a.u.)^3
     number of atoms/cell      =            2
     number of atomic types    =            2
     number of electrons       =        28.00
     number of Kohn-Sham states=           18
     kinetic-energy cutoff     =     140.0000  Ry
     charge density cutoff     =    1400.0000  Ry
     scf convergence threshold =      1.0E-08
     mixing beta               =       0.7000
     number of iterations used =            8  plain     mixing
     Exchange-correlation= PBE
                           (   1   4   3   4   0   0   0)

     celldm(1)=   5.164569  celldm(2)=   0.000000  celldm(3)=   0.000000
     celldm(4)=   0.000000  celldm(5)=   0.000000  celldm(6)=   0.000000

     crystal axes: (cart. coord. in units of alat)
               a(1) = (   1.000000   0.000000   0.000000 )  
               a(2) = (   0.000000   1.000000   0.000000 )  
               a(3) = (   0.000000   0.000000   1.000000 )  

     reciprocal axes: (cart. coord. in units 2 pi/alat)
               b(1) = (  1.000000  0.000000  0.000000 )  
               b(2) = (  0.000000  1.000000  0.000000 )  
               b(3) = (  0.000000  0.000000  1.000000 )  


     PseudoPot. # 1 for Fe read from file:
     /home/rafi/QE/qe-7.4.1/pseudo/Fe.pbe-spn-kjpaw_psl.0.2.1.UPF
     MD5 check sum: e86618425769142926afa95317d90200
     Pseudo is Projector augmented-wave + core cor, Zval = 16.0
     Generated using "atomic" code by A. Dal Corso  v.5.0.99 svn rev. 10869
     Shape of augmentation charge: PSQ
     Using radial grid of 1191 points,  6 beta functions with: 
                l(1) =   0
                l(2) =   0
                l(3) =   1
                l(4) =   1
                l(5) =   2
                l(6) =   2
     Q(r) pseudized with 0 coefficients 


     PseudoPot. # 2 for Ti read from file:
     /home/rafi/QE/qe-7.4.1/pseudo/ti_pbe_v1.4.uspp.F.UPF
     MD5 check sum: 88a00a6731bd790ddea75d31a80cb452
     Pseudo is Ultrasoft + core correction, Zval = 12.0
     Generated by new atomic code, or converted to UPF format
     Using radial grid of  851 points,  6 beta functions with: 
                l(1) =   0
                l(2) =   0
                l(3) =   1
                l(4) =   1
                l(5) =   2
                l(6) =   2
     Q(r) pseudized with  6 coefficients,  rinner =    1.000   1.000   1.000
                                                       1.000   1.000

     atomic species   valence    mass     pseudopotential
     Fe               16.00    55.84500     Fe( 1.00)
     Ti               12.00    47.86700     Ti( 1.00)

     48 Sym. Ops., with inversion, found



   Cartesian axes

     site n.     atom                  positions (alat units)
         1        Fe     tau(   1) = (   0.5000000   0.5000000   0.5000000  )
         2        Ti     tau(   2) = (   0.0000000   0.0000000   0.0000000  )

     number of k points=    56  Marzari-Vanderbilt smearing, width (Ry)=  0.0050
                       cart. coord. in units 2pi/alat
        k(    1) = (   0.0000000   0.0000000   0.0000000), wk =   0.0020000
        k(    2) = (   0.0000000   0.0000000   0.1000000), wk =   0.0120000
        k(    3) = (   0.0000000   0.0000000   0.2000000), wk =   0.0120000
        k(    4) = (   0.0000000   0.0000000   0.3000000), wk =   0.0120000
        k(    5) = (   0.0000000   0.0000000   0.4000000), wk =   0.0120000
        k(    6) = (   0.0000000   0.0000000  -0.5000000), wk =   0.0060000
        k(    7) = (   0.0000000   0.1000000   0.1000000), wk =   0.0240000
        k(    8) = (   0.0000000   0.1000000   0.2000000), wk =   0.0480000
        k(    9) = (   0.0000000   0.1000000   0.3000000), wk =   0.0480000
        k(   10) = (   0.0000000   0.1000000   0.4000000), wk =   0.0480000
        k(   11) = (   0.0000000   0.1000000  -0.5000000), wk =   0.0240000
        k(   12) = (   0.0000000   0.2000000   0.2000000), wk =   0.0240000
        k(   13) = (   0.0000000   0.2000000   0.3000000), wk =   0.0480000
        k(   14) = (   0.0000000   0.2000000   0.4000000), wk =   0.0480000
        k(   15) = (   0.0000000   0.2000000  -0.5000000), wk =   0.0240000
        k(   16) = (   0.0000000   0.3000000   0.3000000), wk =   0.0240000
        k(   17) = (   0.0000000   0.3000000   0.4000000), wk =   0.0480000
        k(   18) = (   0.0000000   0.3000000  -0.5000000), wk =   0.0240000
        k(   19) = (   0.0000000   0.4000000   0.4000000), wk =   0.0240000
        k(   20) = (   0.0000000   0.4000000  -0.5000000), wk =   0.0240000
        k(   21) = (   0.0000000  -0.5000000  -0.5000000), wk =   0.0060000
        k(   22) = (   0.1000000   0.1000000   0.1000000), wk =   0.0160000
        k(   23) = (   0.1000000   0.1000000   0.2000000), wk =   0.0480000
        k(   24) = (   0.1000000   0.1000000   0.3000000), wk =   0.0480000
        k(   25) = (   0.1000000   0.1000000   0.4000000), wk =   0.0480000
        k(   26) = (   0.1000000   0.1000000  -0.5000000), wk =   0.0240000
        k(   27) = (   0.1000000   0.2000000   0.2000000), wk =   0.0480000
        k(   28) = (   0.1000000   0.2000000   0.3000000), wk =   0.0960000
        k(   29) = (   0.1000000   0.2000000   0.4000000), wk =   0.0960000
        k(   30) = (   0.1000000   0.2000000  -0.5000000), wk =   0.0480000
        k(   31) = (   0.1000000   0.3000000   0.3000000), wk =   0.0480000
        k(   32) = (   0.1000000   0.3000000   0.4000000), wk =   0.0960000
        k(   33) = (   0.1000000   0.3000000  -0.5000000), wk =   0.0480000
        k(   34) = (   0.1000000   0.4000000   0.4000000), wk =   0.0480000
        k(   35) = (   0.1000000   0.4000000  -0.5000000), wk =   0.0480000
        k(   36) = (   0.1000000  -0.5000000  -0.5000000), wk =   0.0120000
        k(   37) = (   0.2000000   0.2000000   0.2000000), wk =   0.0160000
        k(   38) = (   0.2000000   0.2000000   0.3000000), wk =   0.0480000
        k(   39) = (   0.2000000   0.2000000   0.4000000), wk =   0.0480000
        k(   40) = (   0.2000000   0.2000000  -0.5000000), wk =   0.0240000
        k(   41) = (   0.2000000   0.3000000   0.3000000), wk =   0.0480000
        k(   42) = (   0.2000000   0.3000000   0.4000000), wk =   0.0960000
        k(   43) = (   0.2000000   0.3000000  -0.5000000), wk =   0.0480000
        k(   44) = (   0.2000000   0.4000000   0.4000000), wk =   0.0480000
        k(   45) = (   0.2000000   0.4000000  -0.5000000), wk =   0.0480000
        k(   46) = (   0.2000000  -0.5000000  -0.5000000), wk =   0.0120000
        k(   47) = (   0.3000000   0.3000000   0.3000000), wk =   0.0160000
        k(   48) = (   0.3000000   0.3000000   0.4000000), wk =   0.0480000
        k(   49) = (   0.3000000   0.3000000  -0.5000000), wk =   0.0240000
        k(   50) = (   0.3000000   0.4000000   0.4000000), wk =   0.0480000
        k(   51) = (   0.3000000   0.4000000  -0.5000000), wk =   0.0480000
        k(   52) = (   0.3000000  -0.5000000  -0.5000000), wk =   0.0120000
        k(   53) = (   0.4000000   0.4000000   0.4000000), wk =   0.0160000
        k(   54) = (   0.4000000   0.4000000  -0.5000000), wk =   0.0240000
        k(   55) = (   0.4000000  -0.5000000  -0.5000000), wk =   0.0120000
        k(   56) = (  -0.5000000  -0.5000000  -0.5000000), wk =   0.0020000

     Dense  grid:   121865 G-vectors     FFT dimensions: (  64,  64,  64)

     Smooth grid:    31031 G-vectors     FFT dimensions: (  40,  40,  40)

     Estimated max dynamical RAM per process >      90.76 MB

     Estimated total dynamical RAM >     544.53 MB

     Check: negative core charge=   -0.000004

     Initial potential from superposition of free atoms

     starting charge      26.9995, renormalised to      28.0000

     negative rho (up, down):  1.369E-03 0.000E+00
     Starting wfcs are   23 randomized atomic wfcs
     Checking if some PAW data can be deallocated... 

     total cpu time spent up to now is        2.5 secs

     Self-consistent Calculation

     iteration #  1     ecut=   140.00 Ry     beta= 0.70
     Davidson diagonalization with overlap
     ethr =  1.00E-02,  avg # of iterations =  2.1

     negative rho (up, down):  6.702E-05 0.000E+00

     total cpu time spent up to now is        5.4 secs

     total energy              =    -438.53662218 Ry
     estimated scf accuracy    <      12.93191923 Ry

     iteration #  2     ecut=   140.00 Ry     beta= 0.70
     Davidson diagonalization with overlap
     ethr =  1.00E-02,  avg # of iterations =  5.3

     negative rho (up, down):  1.083E-04 0.000E+00

     total cpu time spent up to now is       11.0 secs

     total energy              =    -448.05780691 Ry
     estimated scf accuracy    <      51.96532395 Ry

     iteration #  3     ecut=   140.00 Ry     beta= 0.70
     Davidson diagonalization with overlap
     ethr =  1.00E-02,  avg # of iterations =  2.8

     negative rho (up, down):  3.227E-04 0.000E+00

     total cpu time spent up to now is       14.6 secs

     total energy              =    -448.34480512 Ry
     estimated scf accuracy    <      12.52203448 Ry

     iteration #  4     ecut=   140.00 Ry     beta= 0.70
     Davidson diagonalization with overlap
     ethr =  1.00E-02,  avg # of iterations =  2.1

     negative rho (up, down):  2.460E-04 0.000E+00

     total cpu time spent up to now is       17.3 secs

     total energy              =    -448.84032543 Ry
     estimated scf accuracy    <       2.92728559 Ry

     iteration #  5     ecut=   140.00 Ry     beta= 0.70
     Davidson diagonalization with overlap
     ethr =  1.00E-02,  avg # of iterations =  1.0

     negative rho (up, down):  6.057E-04 0.000E+00

     total cpu time spent up to now is       19.8 secs

     total energy              =    -448.36532835 Ry
     estimated scf accuracy    <       2.55028162 Ry

     iteration #  6     ecut=   140.00 Ry     beta= 0.70
     Davidson diagonalization with overlap
     ethr =  9.11E-03,  avg # of iterations =  1.7

     negative rho (up, down):  6.650E-04 0.000E+00

     total cpu time spent up to now is       22.8 secs

     total energy              =    -448.53183605 Ry
     estimated scf accuracy    <       0.17600830 Ry

     iteration #  7     ecut=   140.00 Ry     beta= 0.70
     Davidson diagonalization with overlap
     ethr =  6.29E-04,  avg # of iterations =  3.6

     negative rho (up, down):  1.042E-03 0.000E+00

     total cpu time spent up to now is       26.6 secs

     total energy              =    -448.48448178 Ry
     estimated scf accuracy    <       0.13199016 Ry

     iteration #  8     ecut=   140.00 Ry     beta= 0.70
     Davidson diagonalization with overlap
     ethr =  4.71E-04,  avg # of iterations =  3.1

     negative rho (up, down):  1.044E-03 0.000E+00

     total cpu time spent up to now is       29.5 secs

     total energy              =    -448.51354076 Ry
     estimated scf accuracy    <       0.00269783 Ry

     iteration #  9     ecut=   140.00 Ry     beta= 0.70
     Davidson diagonalization with overlap
     ethr =  9.64E-06,  avg # of iterations =  6.9

     negative rho (up, down):  9.665E-04 0.000E+00

     total cpu time spent up to now is       35.2 secs

     total energy              =    -448.51686497 Ry
     estimated scf accuracy    <       0.08708214 Ry

     iteration # 10     ecut=   140.00 Ry     beta= 0.70
     Davidson diagonalization with overlap
     ethr =  9.64E-06,  avg # of iterations =  3.4

     negative rho (up, down):  9.423E-04 0.000E+00

     total cpu time spent up to now is       38.6 secs

     total energy              =    -448.51502996 Ry
     estimated scf accuracy    <       0.03823602 Ry

     iteration # 11     ecut=   140.00 Ry     beta= 0.70
     Davidson diagonalization with overlap
     ethr =  9.64E-06,  avg # of iterations =  2.4

     negative rho (up, down):  9.222E-04 0.000E+00

     total cpu time spent up to now is       41.5 secs

     total energy              =    -448.51159733 Ry
     estimated scf accuracy    <       0.02024750 Ry

     iteration # 12     ecut=   140.00 Ry     beta= 0.70
     Davidson diagonalization with overlap
     ethr =  9.64E-06,  avg # of iterations =  4.4
     Minimization algorithm failed to find Fermi energy: reverting to bisection
     Possible cause: smearing is larger than the electronic band-gap.

     negative rho (up, down):  9.207E-04 0.000E+00

     total cpu time spent up to now is       44.6 secs

     total energy              =    -448.51441941 Ry
     estimated scf accuracy    <       0.00299560 Ry

     iteration # 13     ecut=   140.00 Ry     beta= 0.70
     Davidson diagonalization with overlap
     ethr =  9.64E-06,  avg # of iterations =  1.0

     negative rho (up, down):  9.607E-04 0.000E+00

     total cpu time spent up to now is       47.5 secs

     total energy              =    -448.51348588 Ry
     estimated scf accuracy    <       0.00608790 Ry

     iteration # 14     ecut=   140.00 Ry     beta= 0.70
     Davidson diagonalization with overlap
     ethr =  9.64E-06,  avg # of iterations =  2.0

     negative rho (up, down):  9.524E-04 0.000E+00

     total cpu time spent up to now is       50.8 secs

     total energy              =    -448.51392820 Ry
     estimated scf accuracy    <       0.00004038 Ry

     iteration # 15     ecut=   140.00 Ry     beta= 0.70
     Davidson diagonalization with overlap
     ethr =  1.44E-07,  avg # of iterations =  4.0

     negative rho (up, down):  9.500E-04 0.000E+00

     total cpu time spent up to now is       54.2 secs

     total energy              =    -448.51394129 Ry
     estimated scf accuracy    <       0.00013079 Ry

     iteration # 16     ecut=   140.00 Ry     beta= 0.70
     Davidson diagonalization with overlap
     ethr =  1.44E-07,  avg # of iterations =  1.3

     negative rho (up, down):  9.516E-04 0.000E+00

     total cpu time spent up to now is       57.0 secs

     total energy              =    -448.51394022 Ry
     estimated scf accuracy    <       0.00004212 Ry

     iteration # 17     ecut=   140.00 Ry     beta= 0.70
     Davidson diagonalization with overlap
     ethr =  1.44E-07,  avg # of iterations =  1.6
     Minimization algorithm failed to find Fermi energy: reverting to bisection
     Possible cause: smearing is larger than the electronic band-gap.

     negative rho (up, down):  9.521E-04 0.000E+00

     total cpu time spent up to now is       59.7 secs

     total energy              =    -448.51394052 Ry
     estimated scf accuracy    <       0.00001079 Ry

     iteration # 18     ecut=   140.00 Ry     beta= 0.70
     Davidson diagonalization with overlap
     ethr =  3.85E-08,  avg # of iterations =  1.9

     negative rho (up, down):  9.526E-04 0.000E+00

     total cpu time spent up to now is       62.5 secs

     total energy              =    -448.51394047 Ry
     estimated scf accuracy    <       0.00000376 Ry

     iteration # 19     ecut=   140.00 Ry     beta= 0.70
     Davidson diagonalization with overlap
     ethr =  1.34E-08,  avg # of iterations =  2.7

     negative rho (up, down):  9.527E-04 0.000E+00

     total cpu time spent up to now is       65.8 secs

     total energy              =    -448.51394083 Ry
     estimated scf accuracy    <       0.00000013 Ry

     iteration # 20     ecut=   140.00 Ry     beta= 0.70
     Davidson diagonalization with overlap
     ethr =  4.70E-10,  avg # of iterations =  5.0

     negative rho (up, down):  9.527E-04 0.000E+00

     total cpu time spent up to now is       69.5 secs

     total energy              =    -448.51394094 Ry
     estimated scf accuracy    <       0.00000001 Ry

     iteration # 21     ecut=   140.00 Ry     beta= 0.70
     Davidson diagonalization with overlap
     ethr =  4.47E-11,  avg # of iterations =  3.0

     negative rho (up, down):  9.527E-04 0.000E+00

     total cpu time spent up to now is       72.1 secs

     End of self-consistent calculation

          k = 0.0000 0.0000 0.0000 (  3887 PWs)   bands (ev):

   -64.4779 -33.8202 -30.5498 -30.5498 -30.5498  -9.8036  -9.8036  -9.8036
    14.5189  17.4341  17.4341  21.2427  21.2427  21.2427  24.2759  24.2759
    26.8808  26.8808

          k = 0.0000 0.0000 0.1000 (  3843 PWs)   bands (ev):

   -64.4769 -33.8171 -30.5533 -30.5486 -30.5486  -9.8787  -9.8003  -9.8003
    14.7767  17.5614  17.6084  21.2251  21.2251  21.3034  24.0901  24.3499
    26.4716  26.4716

          k = 0.0000 0.0000 0.2000 (  3839 PWs)   bands (ev):

   -64.4743 -33.8093 -30.5621 -30.5452 -30.5452 -10.0721  -9.7916  -9.7916
    15.5056  17.9334  18.0650  21.1907  21.1907  21.4716  23.5627  24.5254
    25.5682  25.5682

          k = 0.0000 0.0000 0.3000 (  3856 PWs)   bands (ev):

   -64.4711 -33.8000 -30.5723 -30.5411 -30.5411 -10.3051  -9.7808  -9.7808
    16.5767  18.5149  18.6079  21.1785  21.1785  21.7020  22.7854  24.6261
    24.6327  24.6327

          k = 0.0000 0.0000 0.4000 (  3860 PWs)   bands (ev):

   -64.4684 -33.7927 -30.5799 -30.5378 -30.5378 -10.4892  -9.7721  -9.7721
    17.7571  18.9302  19.2068  21.2049  21.2049  21.9128  21.9326  23.9433
    23.9433  24.4025

          k = 0.0000 0.0000-0.5000 (  3868 PWs)   bands (ev):

   -64.4674 -33.7901 -30.5827 -30.5365 -30.5365 -10.5585  -9.7687  -9.7687
    18.5778  18.7627  19.6274  21.2281  21.2281  21.4501  22.0009  23.6847
    23.6847  24.1590

          k = 0.0000 0.1000 0.1000 (  3847 PWs)   bands (ev):

   -64.4759 -33.8130 -30.5598 -30.5473 -30.5457  -9.8850  -9.8633  -9.7966
    15.0251  17.6999  17.7635  21.0823  21.1933  21.4676  24.0721  24.3001
    26.0307  26.0710

          k = 0.0000 0.1000 0.2000 (  3853 PWs)   bands (ev):

   -64.4733 -33.8025 -30.5705 -30.5444 -30.5440 -10.0658  -9.8607  -9.7868
    15.7237  18.0451  18.2195  20.9560  21.1234  21.6477  23.6804  24.4560
    25.2159  25.2722

          k = 0.0000 0.1000 0.3000 (  3852 PWs)   bands (ev):

   -64.4701 -33.7899 -30.5805 -30.5453 -30.5400 -10.2943  -9.8467  -9.7748
    16.7359  18.5441  18.7855  20.9121  21.0572  21.7303  23.0423  24.2548
    24.6202  24.7593

          k = 0.0000 0.1000 0.4000 (  3863 PWs)   bands (ev):

   -64.4675 -33.7800 -30.5870 -30.5470 -30.5367 -10.4750  -9.8352  -9.7650
    17.8246  18.9203  19.3189  20.9691  20.9844  21.6409  22.4167  23.6763
    24.2941  24.7107

          k = 0.0000 0.1000-0.5000 (  3866 PWs)   bands (ev):

   -64.4665 -33.7762 -30.5892 -30.5479 -30.5355 -10.5431  -9.8308  -9.7613
    18.5438  18.7926  19.6517  20.8895  21.0410  21.5313  22.1689  23.4467
    24.2266  24.5839

          k = 0.0000 0.2000 0.2000 (  3864 PWs)   bands (ev):

   -64.4707 -33.7850 -30.5861 -30.5484 -30.5410 -10.0720 -10.0162  -9.7744
    16.3179  18.2734  18.7024  20.6686  21.0021  21.7114  23.8247  24.3900
    24.4931  24.8825

          k = 0.0000 0.2000 0.3000 (  3850 PWs)   bands (ev):

   -64.4675 -33.7634 -30.5995 -30.5588 -30.5372 -10.2667 -10.0160  -9.7590
    17.1129  18.5301  19.3446  20.4932  20.9613  21.4721  23.5523  23.8864
    24.6594  24.8142

          k = 0.0000 0.2000 0.4000 (  3857 PWs)   bands (ev):

   -64.4649 -33.7461 -30.6058 -30.5713 -30.5341 -10.4379  -9.9982  -9.7465
    17.8445  18.6699  19.8862  20.4851  21.0700  21.1058  23.1615  23.5348
    24.9801  25.0134

          k = 0.0000 0.2000-0.5000 (  3860 PWs)   bands (ev):

   -64.4640 -33.7396 -30.6066 -30.5776 -30.5329 -10.5027  -9.9911  -9.7417
    18.2004  18.6375  20.0918  20.5989  20.7905  21.2635  23.1072  23.2726
    25.1197  25.1633

          k = 0.0000 0.3000 0.3000 (  3850 PWs)   bands (ev):

   -64.4644 -33.7305 -30.6186 -30.5798 -30.5336 -10.2539 -10.1992  -9.7394
    17.4611  18.4622  20.1111  20.1737  20.9672  21.1823  23.7328  24.0025
    24.5459  25.2570

          k = 0.0000 0.3000 0.4000 (  3855 PWs)   bands (ev):

   -64.4618 -33.7037 -30.6287 -30.6021 -30.5308 -10.3921 -10.1950  -9.7235
    17.6315  18.3574  20.0443  20.4759  20.7765  21.7940  23.5628  24.0340
    24.9353  25.7524

          k = 0.0000 0.3000-0.5000 (  3850 PWs)   bands (ev):

   -64.4609 -33.6934 -30.6289 -30.6143 -30.5297 -10.4526 -10.1849  -9.7174
    17.6754  18.3011  20.1200  20.1746  21.0132  22.3636  23.2265  24.0141
    25.3051  26.0360

          k = 0.0000 0.4000 0.4000 (  3854 PWs)   bands (ev):

   -64.4593 -33.6688 -30.6450 -30.6297 -30.5281 -10.3632 -10.3426  -9.7048
    17.3742  18.1191  19.7885  20.0160  21.7359  22.5679  23.9999  24.6082
    24.6289  26.3447

          k = 0.0000 0.4000-0.5000 (  3852 PWs)   bands (ev):

   -64.4583 -33.6553 -30.6477 -30.6438 -30.5271 -10.4119 -10.3384  -9.6977
    17.2685  18.0312  19.7712  19.7802  22.1283  23.2549  23.6826  24.6857
    24.9470  26.6518

          k = 0.0000-0.5000-0.5000 (  3900 PWs)   bands (ev):

   -64.4574 -33.6405 -30.6551 -30.6551 -30.5261 -10.3963 -10.3963  -9.6901
    17.1195  17.9330  19.6451  19.6451  22.7639  23.3744  24.4646  24.4646
    24.8638  26.8751

          k = 0.1000 0.1000 0.1000 (  3851 PWs)   bands (ev):

   -64.4749 -33.8081 -30.5585 -30.5585 -30.5395  -9.8882  -9.8599  -9.8599
    15.2666  17.8753  17.8753  21.0456  21.0456  21.5958  24.1691  24.1691
    25.3958  26.4399

          k = 0.1000 0.1000 0.2000 (  3862 PWs)   bands (ev):

   -64.4723 -33.7953 -30.5727 -30.5550 -30.5382 -10.0591  -9.8602  -9.8510
    15.9421  18.1987  18.3300  20.8734  20.9517  21.6913  23.7965  24.3947
    24.7680  25.5397

          k = 0.1000 0.1000 0.3000 (  3862 PWs)   bands (ev):

   -64.4691 -33.7798 -30.5851 -30.5507 -30.5412 -10.2839  -9.8414  -9.8401
    16.9082  18.6919  18.8459  20.8269  20.8288  21.5902  23.2594  24.2576
    24.6354  24.8001

          k = 0.1000 0.1000 0.4000 (  3864 PWs)   bands (ev):

   -64.4665 -33.7675 -30.5926 -30.5473 -30.5456 -10.4619  -9.8312  -9.8259
    17.9255  19.0772  19.2521  20.6630  20.9774  21.4050  22.7367  23.9218
    23.9957  25.1291

          k = 0.1000 0.1000-0.5000 (  3842 PWs)   bands (ev):

   -64.4655 -33.7629 -30.5949 -30.5477 -30.5459 -10.5289  -9.8278  -9.8199
    18.5928  18.8750  19.5733  20.5244  21.1939  21.2827  22.5102  23.6780
    23.7641  25.3462

          k = 0.1000 0.2000 0.2000 (  3863 PWs)   bands (ev):

   -64.4698 -33.7764 -30.5846 -30.5600 -30.5396 -10.0621 -10.0128  -9.8419
    16.5356  18.4624  18.7676  20.6114  20.8005  21.5226  23.9505  24.3538
    24.5326  25.1478

          k = 0.1000 0.2000 0.3000 (  3855 PWs)   bands (ev):

   -64.4666 -33.7532 -30.5994 -30.5634 -30.5437 -10.2573 -10.0103  -9.8250
    17.3204  18.7317  19.3509  20.4312  20.7384  21.1582  23.7375  24.1328
    24.6096  25.0369

          k = 0.1000 0.2000 0.4000 (  3852 PWs)   bands (ev):

   -64.4640 -33.7346 -30.6081 -30.5716 -30.5443 -10.4274  -9.9925  -9.8108
    18.0227  18.8713  19.7242  20.3632  20.8564  21.0306  23.4180  23.6650
    24.4106  25.7377

          k = 0.1000 0.2000-0.5000 (  3846 PWs)   bands (ev):

   -64.4630 -33.7275 -30.6103 -30.5764 -30.5439 -10.4917  -9.9856  -9.8053
    18.3649  18.8092  19.8222  20.3546  20.8101  21.2997  23.3133  23.3832
    24.2286  26.3228

          k = 0.1000 0.3000 0.3000 (  3838 PWs)   bands (ev):

   -64.4634 -33.7202 -30.6169 -30.5826 -30.5431 -10.2436 -10.1960  -9.8052
    17.6915  18.6698  20.0511  20.1757  20.6663  20.9293  23.8655  24.1900
    24.5000  25.6121

          k = 0.1000 0.3000 0.4000 (  3853 PWs)   bands (ev):

   -64.4609 -33.6932 -30.6280 -30.6027 -30.5413 -10.3848 -10.1905  -9.7890
    17.8415  18.5608  19.9807  20.2511  20.7903  21.5421  23.5968  24.1747
    24.5719  26.3710

          k = 0.1000 0.3000-0.5000 (  3854 PWs)   bands (ev):

   -64.4599 -33.6829 -30.6301 -30.6127 -30.5405 -10.4455 -10.1808  -9.7827
    17.8680  18.5007  20.0181  20.0476  20.9821  22.1360  23.2654  24.1847
    24.5020  26.5410

          k = 0.1000 0.4000 0.4000 (  3852 PWs)   bands (ev):

   -64.4584 -33.6593 -30.6431 -30.6294 -30.5387 -10.3577 -10.3398  -9.7712
    17.5816  18.3264  19.7556  19.9432  21.6556  22.3119  23.7446  24.2917
    24.7263  26.6783

          k = 0.1000 0.4000-0.5000 (  3848 PWs)   bands (ev):

   -64.4574 -33.6462 -30.6467 -30.6420 -30.5376 -10.4080 -10.3354  -9.7644
    17.4731  18.2397  19.7383  19.7403  22.0321  23.1952  23.2513  24.2621
    24.8234  26.8243

          k = 0.1000-0.5000-0.5000 (  3856 PWs)   bands (ev):

   -64.4565 -33.6320 -30.6532 -30.6532 -30.5366 -10.3937 -10.3937  -9.7573
    17.3283  18.1443  19.6227  19.6227  22.7693  23.3727  23.7144  23.7144
    24.9975  27.7656

          k = 0.2000 0.2000 0.2000 (  3845 PWs)   bands (ev):

   -64.4672 -33.7541 -30.5808 -30.5808 -30.5456 -10.0481 -10.0040 -10.0040
    17.1203  18.9475  18.9475  20.4676  20.4676  20.9983  24.2431  24.2431
    24.9162  25.4966

          k = 0.2000 0.2000 0.3000 (  3850 PWs)   bands (ev):

   -64.4641 -33.7264 -30.6015 -30.5760 -30.5577 -10.2331  -9.9970  -9.9930
    17.8488  19.1931  19.4174  20.2981  20.3286  20.5677  24.0714  24.3487
    24.6582  25.5597

          k = 0.2000 0.2000 0.4000 (  3842 PWs)   bands (ev):

   -64.4615 -33.7040 -30.6156 -30.5721 -30.5699 -10.3998  -9.9841  -9.9704
    18.3935  19.2877  19.4221  20.1588  20.5663  20.8258  23.8959  23.8965
    24.1001  26.2201

          k = 0.2000 0.2000-0.5000 (  3846 PWs)   bands (ev):

   -64.4605 -33.6955 -30.6203 -30.5752 -30.5706 -10.4628  -9.9807  -9.9601
    18.6279  19.0539  19.5233  20.0994  20.6956  21.2568  23.4762  23.8146
    23.9129  26.3773

          k = 0.2000 0.3000 0.3000 (  3849 PWs)   bands (ev):

   -64.4609 -33.6930 -30.6126 -30.5910 -30.5671 -10.2166 -10.1878  -9.9750
    18.3336  19.2054  19.9135  20.0814  20.1580  20.3712  24.0098  24.3043
    24.7512  25.8000

          k = 0.2000 0.3000 0.4000 (  3856 PWs)   bands (ev):

   -64.4584 -33.6658 -30.6272 -30.6035 -30.5688 -10.3659 -10.1784  -9.9580
    18.4115  19.0384  19.7826  19.9711  20.6354  21.0026  23.6603  23.9988
    24.7240  26.2608

          k = 0.2000 0.3000-0.5000 (  3860 PWs)   bands (ev):

   -64.4575 -33.6553 -30.6332 -30.6087 -30.5686 -10.4270 -10.1701  -9.9512
    18.3770  18.9471  19.7246  19.9434  20.7970  21.6130  23.2969  23.8374
    24.6822  26.5101

          k = 0.2000 0.4000 0.4000 (  3845 PWs)   bands (ev):

   -64.4559 -33.6345 -30.6384 -30.6288 -30.5663 -10.3434 -10.3325  -9.9425
    18.1597  18.8405  19.6853  19.8194  21.3780  21.5725  23.5498  23.6971
    25.1576  26.6001

          k = 0.2000 0.4000-0.5000 (  3852 PWs)   bands (ev):

   -64.4550 -33.6224 -30.6440 -30.6373 -30.5652 -10.3980 -10.3275  -9.9365
    18.0463  18.7628  19.6557  19.6941  21.6472  22.2433  23.1687  23.5884
    25.2525  26.8753

          k = 0.2000-0.5000-0.5000 (  3856 PWs)   bands (ev):

   -64.4540 -33.6097 -30.6482 -30.6482 -30.5640 -10.3869 -10.3869  -9.9308
    17.9198  18.6917  19.5821  19.5821  22.5271  22.5271  22.7836  23.3439
    25.4103  27.2032

          k = 0.3000 0.3000 0.3000 (  3836 PWs)   bands (ev):

   -64.4579 -33.6592 -30.6072 -30.6072 -30.5909 -10.1859 -10.1776 -10.1776
    19.1222  19.5104  19.7662  19.7662  20.1005  20.1005  23.9567  23.9567
    25.5004  25.5004

          k = 0.3000 0.3000 0.4000 (  3865 PWs)   bands (ev):

   -64.4554 -33.6315 -30.6284 -30.6028 -30.6021 -10.3429 -10.1693 -10.1560
    18.9723  19.3201  19.6677  20.0177  20.3371  20.6970  23.5571  23.6708
    25.4077  26.2642

          k = 0.3000 0.3000-0.5000 (  3860 PWs)   bands (ev):

   -64.4544 -33.6209 -30.6372 -30.6057 -30.6012 -10.4042 -10.1662 -10.1456
    18.8345  19.2101  19.6367  19.9748  20.5937  21.2255  23.1812  23.5709
    25.3880  26.6067

          k = 0.3000 0.4000 0.4000 (  3845 PWs)   bands (ev):

   -64.4529 -33.6035 -30.6325 -30.6281 -30.6003 -10.3258 -10.3236 -10.1495
    18.9003  19.3413  19.6470  19.9396  20.7693  20.8983  23.3043  23.4115
    25.8690  26.6266

          k = 0.3000 0.4000-0.5000 (  3846 PWs)   bands (ev):

   -64.4520 -33.5927 -30.6407 -30.6315 -30.5992 -10.3857 -10.3178 -10.1445
    18.8274  19.2737  19.6576  19.7909  20.9939  21.3342  23.0105  23.3384
    25.9502  26.9442

          k = 0.3000-0.5000-0.5000 (  3832 PWs)   bands (ev):

   -64.4511 -33.5819 -30.6421 -30.6421 -30.5977 -10.3786 -10.3786 -10.1405
    18.7785  19.3475  19.5899  19.5899  21.4648  21.4648  22.8014  23.2273
    26.0985  27.2405

          k = 0.4000 0.4000 0.4000 (  3855 PWs)   bands (ev):

   -64.4505 -33.5782 -30.6277 -30.6277 -30.6277 -10.3163 -10.3163 -10.3086
    19.2187  19.7168  19.7168  20.3725  20.3725  20.3993  23.1372  23.1372
    26.6694  26.6694

          k = 0.4000 0.4000-0.5000 (  3856 PWs)   bands (ev):

   -64.4496 -33.5685 -30.6381 -30.6276 -30.6258 -10.3756 -10.3135 -10.3057
    19.3763  19.5172  19.9100  20.0027  20.5012  20.7343  22.9197  23.0944
    26.6877  27.0588

          k = 0.4000-0.5000-0.5000 (  3868 PWs)   bands (ev):

   -64.4486 -33.5592 -30.6372 -30.6372 -30.6249 -10.3718 -10.3718 -10.3066
    19.6597  19.7257  19.7257  19.8501  20.6346  20.6346  22.8158  22.9898
    26.8903  27.2710

          k =-0.5000-0.5000-0.5000 (  3840 PWs)   bands (ev):

   -64.4477 -33.5506 -30.6353 -30.6353 -30.6353 -10.3692 -10.3692 -10.3692
    20.0333  20.0333  20.0333  20.0853  20.0853  20.0853  22.8213  22.8213
    27.2826  27.2826

     the Fermi energy is    22.5914 ev

!    total energy              =    -448.51394094 Ry
     estimated scf accuracy    <          3.0E-09 Ry
     smearing contrib. (-TS)   =       0.00001961 Ry
     internal energy E=F+TS    =    -448.51396055 Ry

     The total energy is F=E-TS. E is the sum of the following terms:
     one-electron contribution =    -121.57627115 Ry
     hartree contribution      =      81.93353783 Ry
     xc contribution           =     -53.33588032 Ry
     ewald contribution        =    -279.37709975 Ry
     one-center paw contrib.   =     -76.15824716 Ry

     convergence has been achieved in  21 iterations

     negative rho (up, down):  9.527E-04 0.000E+00

     Forces acting on atoms (cartesian axes, Ry/au):

     atom    1 type  1   force =     0.00000000    0.00000000    0.00000000
     atom    2 type  2   force =     0.00000000    0.00000000    0.00000000

     Total force =     0.000000     Total SCF correction =     0.000000


     Computing stress (Cartesian axis) and pressure


     negative rho (up, down):  9.527E-04 0.000E+00
          total   stress  (Ry/bohr**3)                   (kbar)     P=      725.30
   0.00493046   0.00000000   0.00000000          725.30        0.00        0.00
   0.00000000   0.00493046   0.00000000            0.00      725.30        0.00
   0.00000000   0.00000000   0.00493046            0.00        0.00      725.30


     Writing all to output data dir ./out/TiFe18.save/ :
     XML data file, charge density, pseudopotentials, collected wavefunctions

     init_run     :      1.78s CPU      2.28s WALL (       1 calls)
     electrons    :     59.83s CPU     69.65s WALL (       1 calls)
     forces       :      0.41s CPU      0.49s WALL (       1 calls)
     stress       :      2.22s CPU      2.60s WALL (       1 calls)

     Called by init_run:
     wfcinit      :      1.12s CPU      1.46s WALL (       1 calls)
     potinit      :      0.13s CPU      0.18s WALL (       1 calls)
     hinit0       :      0.17s CPU      0.18s WALL (       1 calls)

     Called by electrons:
     c_bands      :     45.75s CPU     51.48s WALL (      21 calls)
     sum_band     :      8.43s CPU     10.68s WALL (      21 calls)
     v_of_rho     :      0.81s CPU      0.93s WALL (      22 calls)
     newd         :      2.87s CPU      4.37s WALL (      22 calls)
     PAW_pot      :      1.95s CPU      2.28s WALL (      22 calls)
     mix_rho      :      0.15s CPU      0.17s WALL (      21 calls)

     Called by c_bands:
     init_us_2    :      0.80s CPU      0.88s WALL (    2520 calls)
     cegterg      :     43.93s CPU     49.49s WALL (    1176 calls)

     Called by *egterg:
     cdiaghg      :      1.90s CPU      2.03s WALL (    4598 calls)
     h_psi        :     31.57s CPU     36.27s WALL (    4654 calls)
     s_psi        :      1.72s CPU      1.83s WALL (    4654 calls)
     g_psi        :      0.08s CPU      0.09s WALL (    3422 calls)

     Called by h_psi:
     h_psi:calbec :      3.17s CPU      3.57s WALL (    4654 calls)
     vloc_psi     :     26.43s CPU     30.60s WALL (    4654 calls)
     add_vuspsi   :      1.75s CPU      1.86s WALL (    4654 calls)

     General routines
     calbec       :      4.96s CPU      5.53s WALL (    6782 calls)
     fft          :      0.49s CPU      0.59s WALL (     309 calls)
     ffts         :      0.02s CPU      0.02s WALL (      43 calls)
     fftw         :     24.76s CPU     28.80s WALL (  131228 calls)
     interpolate  :      0.06s CPU      0.06s WALL (      22 calls)

     Parallel routines

     PWSCF        :   1m 4.49s CPU   1m15.37s WALL


   This run was terminated on:  22: 7:40  31Oct2025            

=------------------------------------------------------------------------------=
   JOB DONE.
=------------------------------------------------------------------------------=
