
     Program PWSCF v.7.4.1 starts on 31Oct2025 at 21:42:22 

     This program is part of the open-source Quantum ESPRESSO suite
     for quantum simulation of materials; please cite
         "P. Giannozzi et al., J. Phys.:Condens. Matter 21 395502 (2009);
         "P. Giannozzi et al., J. Phys.:Condens. Matter 29 465901 (2017);
         "P. Giannozzi et al., J. Chem. Phys. 152 154105 (2020);
          URL http://www.quantum-espresso.org", 
     in publications or presentations arising from this work. More details at
     http://www.quantum-espresso.org/quote

     Parallel version (MPI), running on     6 processors

     MPI processes distributed on     1 nodes
     1421 MiB available memory on the printing compute node when the environment starts

     Reading input from TiFe7.in

     Current dimensions of program PWSCF are:
     Max number of different atomic species (ntypx) = 10
     Max number of k-points (npk) =  40000
     Max angular momentum in pseudopotentials (lmaxx) =  4
     file Fe.pbe-spn-kjpaw_psl.0.2.1.UPF: wavefunction(s)  3D renormalized

     IMPORTANT: XC functional enforced from input :
     Exchange-correlation= PBE
                           (   1   4   3   4   0   0   0)
     Any further DFT definition will be discarded
     Please, verify this is what you really want

     Message from routine setup:
     using ibrav=0 with symmetry is DISCOURAGED, use correct ibrav instead

     R & G space division:  proc/nbgrp/npool/nimage =       6
     Subspace diagonalization in iterative solution of the eigenvalue problem:
     a serial algorithm will be used


     Parallelization info
     --------------------
     sticks:   dense  smooth     PW     G-vecs:    dense   smooth      PW
     Min         643     258     72                30041     7628    1184
     Max         644     259     73                30044     7629    1189
     Sum        3861    1549    437               180251    45769    7123

     Using Slab Decomposition



     bravais-lattice index     =            0
     lattice parameter (alat)  =       5.8865  a.u.
     unit-cell volume          =     203.9723 (a.u.)^3
     number of atoms/cell      =            2
     number of atomic types    =            2
     number of electrons       =        28.00
     number of Kohn-Sham states=           18
     kinetic-energy cutoff     =     140.0000  Ry
     charge density cutoff     =    1400.0000  Ry
     scf convergence threshold =      1.0E-08
     mixing beta               =       0.7000
     number of iterations used =            8  plain     mixing
     Exchange-correlation= PBE
                           (   1   4   3   4   0   0   0)

     celldm(1)=   5.886498  celldm(2)=   0.000000  celldm(3)=   0.000000
     celldm(4)=   0.000000  celldm(5)=   0.000000  celldm(6)=   0.000000

     crystal axes: (cart. coord. in units of alat)
               a(1) = (   1.000000   0.000000   0.000000 )  
               a(2) = (   0.000000   1.000000   0.000000 )  
               a(3) = (   0.000000   0.000000   1.000000 )  

     reciprocal axes: (cart. coord. in units 2 pi/alat)
               b(1) = (  1.000000  0.000000  0.000000 )  
               b(2) = (  0.000000  1.000000  0.000000 )  
               b(3) = (  0.000000  0.000000  1.000000 )  


     PseudoPot. # 1 for Fe read from file:
     /home/rafi/QE/qe-7.4.1/pseudo/Fe.pbe-spn-kjpaw_psl.0.2.1.UPF
     MD5 check sum: e86618425769142926afa95317d90200
     Pseudo is Projector augmented-wave + core cor, Zval = 16.0
     Generated using "atomic" code by A. Dal Corso  v.5.0.99 svn rev. 10869
     Shape of augmentation charge: PSQ
     Using radial grid of 1191 points,  6 beta functions with: 
                l(1) =   0
                l(2) =   0
                l(3) =   1
                l(4) =   1
                l(5) =   2
                l(6) =   2
     Q(r) pseudized with 0 coefficients 


     PseudoPot. # 2 for Ti read from file:
     /home/rafi/QE/qe-7.4.1/pseudo/ti_pbe_v1.4.uspp.F.UPF
     MD5 check sum: 88a00a6731bd790ddea75d31a80cb452
     Pseudo is Ultrasoft + core correction, Zval = 12.0
     Generated by new atomic code, or converted to UPF format
     Using radial grid of  851 points,  6 beta functions with: 
                l(1) =   0
                l(2) =   0
                l(3) =   1
                l(4) =   1
                l(5) =   2
                l(6) =   2
     Q(r) pseudized with  6 coefficients,  rinner =    1.000   1.000   1.000
                                                       1.000   1.000

     atomic species   valence    mass     pseudopotential
     Fe               16.00    55.84500     Fe( 1.00)
     Ti               12.00    47.86700     Ti( 1.00)

     48 Sym. Ops., with inversion, found



   Cartesian axes

     site n.     atom                  positions (alat units)
         1        Fe     tau(   1) = (   0.5000000   0.5000000   0.5000000  )
         2        Ti     tau(   2) = (   0.0000000   0.0000000   0.0000000  )

     number of k points=    56  Marzari-Vanderbilt smearing, width (Ry)=  0.0050
                       cart. coord. in units 2pi/alat
        k(    1) = (   0.0000000   0.0000000   0.0000000), wk =   0.0020000
        k(    2) = (   0.0000000   0.0000000   0.1000000), wk =   0.0120000
        k(    3) = (   0.0000000   0.0000000   0.2000000), wk =   0.0120000
        k(    4) = (   0.0000000   0.0000000   0.3000000), wk =   0.0120000
        k(    5) = (   0.0000000   0.0000000   0.4000000), wk =   0.0120000
        k(    6) = (   0.0000000   0.0000000  -0.5000000), wk =   0.0060000
        k(    7) = (   0.0000000   0.1000000   0.1000000), wk =   0.0240000
        k(    8) = (   0.0000000   0.1000000   0.2000000), wk =   0.0480000
        k(    9) = (   0.0000000   0.1000000   0.3000000), wk =   0.0480000
        k(   10) = (   0.0000000   0.1000000   0.4000000), wk =   0.0480000
        k(   11) = (   0.0000000   0.1000000  -0.5000000), wk =   0.0240000
        k(   12) = (   0.0000000   0.2000000   0.2000000), wk =   0.0240000
        k(   13) = (   0.0000000   0.2000000   0.3000000), wk =   0.0480000
        k(   14) = (   0.0000000   0.2000000   0.4000000), wk =   0.0480000
        k(   15) = (   0.0000000   0.2000000  -0.5000000), wk =   0.0240000
        k(   16) = (   0.0000000   0.3000000   0.3000000), wk =   0.0240000
        k(   17) = (   0.0000000   0.3000000   0.4000000), wk =   0.0480000
        k(   18) = (   0.0000000   0.3000000  -0.5000000), wk =   0.0240000
        k(   19) = (   0.0000000   0.4000000   0.4000000), wk =   0.0240000
        k(   20) = (   0.0000000   0.4000000  -0.5000000), wk =   0.0240000
        k(   21) = (   0.0000000  -0.5000000  -0.5000000), wk =   0.0060000
        k(   22) = (   0.1000000   0.1000000   0.1000000), wk =   0.0160000
        k(   23) = (   0.1000000   0.1000000   0.2000000), wk =   0.0480000
        k(   24) = (   0.1000000   0.1000000   0.3000000), wk =   0.0480000
        k(   25) = (   0.1000000   0.1000000   0.4000000), wk =   0.0480000
        k(   26) = (   0.1000000   0.1000000  -0.5000000), wk =   0.0240000
        k(   27) = (   0.1000000   0.2000000   0.2000000), wk =   0.0480000
        k(   28) = (   0.1000000   0.2000000   0.3000000), wk =   0.0960000
        k(   29) = (   0.1000000   0.2000000   0.4000000), wk =   0.0960000
        k(   30) = (   0.1000000   0.2000000  -0.5000000), wk =   0.0480000
        k(   31) = (   0.1000000   0.3000000   0.3000000), wk =   0.0480000
        k(   32) = (   0.1000000   0.3000000   0.4000000), wk =   0.0960000
        k(   33) = (   0.1000000   0.3000000  -0.5000000), wk =   0.0480000
        k(   34) = (   0.1000000   0.4000000   0.4000000), wk =   0.0480000
        k(   35) = (   0.1000000   0.4000000  -0.5000000), wk =   0.0480000
        k(   36) = (   0.1000000  -0.5000000  -0.5000000), wk =   0.0120000
        k(   37) = (   0.2000000   0.2000000   0.2000000), wk =   0.0160000
        k(   38) = (   0.2000000   0.2000000   0.3000000), wk =   0.0480000
        k(   39) = (   0.2000000   0.2000000   0.4000000), wk =   0.0480000
        k(   40) = (   0.2000000   0.2000000  -0.5000000), wk =   0.0240000
        k(   41) = (   0.2000000   0.3000000   0.3000000), wk =   0.0480000
        k(   42) = (   0.2000000   0.3000000   0.4000000), wk =   0.0960000
        k(   43) = (   0.2000000   0.3000000  -0.5000000), wk =   0.0480000
        k(   44) = (   0.2000000   0.4000000   0.4000000), wk =   0.0480000
        k(   45) = (   0.2000000   0.4000000  -0.5000000), wk =   0.0480000
        k(   46) = (   0.2000000  -0.5000000  -0.5000000), wk =   0.0120000
        k(   47) = (   0.3000000   0.3000000   0.3000000), wk =   0.0160000
        k(   48) = (   0.3000000   0.3000000   0.4000000), wk =   0.0480000
        k(   49) = (   0.3000000   0.3000000  -0.5000000), wk =   0.0240000
        k(   50) = (   0.3000000   0.4000000   0.4000000), wk =   0.0480000
        k(   51) = (   0.3000000   0.4000000  -0.5000000), wk =   0.0480000
        k(   52) = (   0.3000000  -0.5000000  -0.5000000), wk =   0.0120000
        k(   53) = (   0.4000000   0.4000000   0.4000000), wk =   0.0160000
        k(   54) = (   0.4000000   0.4000000  -0.5000000), wk =   0.0240000
        k(   55) = (   0.4000000  -0.5000000  -0.5000000), wk =   0.0120000
        k(   56) = (  -0.5000000  -0.5000000  -0.5000000), wk =   0.0020000

     Dense  grid:   180251 G-vectors     FFT dimensions: (  72,  72,  72)

     Smooth grid:    45769 G-vectors     FFT dimensions: (  45,  45,  45)

     Estimated max dynamical RAM per process >     131.07 MB

     Estimated total dynamical RAM >     786.40 MB

     Check: negative core charge=   -0.000003

     Initial potential from superposition of free atoms

     starting charge      26.9995, renormalised to      28.0000

     negative rho (up, down):  1.468E-03 0.000E+00
     Starting wfcs are   23 randomized atomic wfcs
     Checking if some PAW data can be deallocated... 

     total cpu time spent up to now is        2.3 secs

     Self-consistent Calculation

     iteration #  1     ecut=   140.00 Ry     beta= 0.70
     Davidson diagonalization with overlap
     ethr =  1.00E-02,  avg # of iterations =  2.3

     negative rho (up, down):  1.011E-04 0.000E+00

     total cpu time spent up to now is        6.5 secs

     WARNING: integrated charge=    28.00432431, expected=    28.00000000

     total energy              =    -431.48505890 Ry
     estimated scf accuracy    <      21.54005508 Ry

     iteration #  2     ecut=   140.00 Ry     beta= 0.70
     Davidson diagonalization with overlap
     ethr =  1.00E-02,  avg # of iterations =  6.2

     negative rho (up, down):  7.349E-06 0.000E+00

     total cpu time spent up to now is       14.2 secs

     WARNING: integrated charge=    28.00332839, expected=    28.00000000

     total energy              =    -445.95564341 Ry
     estimated scf accuracy    <      88.90574883 Ry

     iteration #  3     ecut=   140.00 Ry     beta= 0.70
     Davidson diagonalization with overlap
     ethr =  1.00E-02,  avg # of iterations =  3.2

     negative rho (up, down):  7.516E-05 0.000E+00

     total cpu time spent up to now is       19.5 secs

     WARNING: integrated charge=    28.00278829, expected=    28.00000000

     total energy              =    -449.82088082 Ry
     estimated scf accuracy    <      19.64246879 Ry

     iteration #  4     ecut=   140.00 Ry     beta= 0.70
     Davidson diagonalization with overlap
     ethr =  1.00E-02,  avg # of iterations =  2.2

     negative rho (up, down):  2.055E-04 0.000E+00

     total cpu time spent up to now is       23.6 secs

     WARNING: integrated charge=    28.00242465, expected=    28.00000000

     total energy              =    -449.07189784 Ry
     estimated scf accuracy    <      10.01617409 Ry

     iteration #  5     ecut=   140.00 Ry     beta= 0.70
     Davidson diagonalization with overlap
     ethr =  1.00E-02,  avg # of iterations =  1.2

     negative rho (up, down):  4.162E-04 0.000E+00

     total cpu time spent up to now is       27.2 secs

     WARNING: integrated charge=    28.00204009, expected=    28.00000000

     total energy              =    -448.81711082 Ry
     estimated scf accuracy    <       5.43369196 Ry

     iteration #  6     ecut=   140.00 Ry     beta= 0.70
     Davidson diagonalization with overlap
     ethr =  1.00E-02,  avg # of iterations =  1.2

     negative rho (up, down):  1.010E-03 0.000E+00

     total cpu time spent up to now is       30.7 secs

     WARNING: integrated charge=    28.00128176, expected=    28.00000000

     total energy              =    -448.06589661 Ry
     estimated scf accuracy    <       3.83227176 Ry

     iteration #  7     ecut=   140.00 Ry     beta= 0.70
     Davidson diagonalization with overlap
     ethr =  1.00E-02,  avg # of iterations =  2.9

     negative rho (up, down):  1.015E-03 0.000E+00

     total cpu time spent up to now is       34.7 secs

     WARNING: integrated charge=    28.00129002, expected=    28.00000000

     total energy              =    -448.64079183 Ry
     estimated scf accuracy    <       1.89237119 Ry

     iteration #  8     ecut=   140.00 Ry     beta= 0.70
     Davidson diagonalization with overlap
     ethr =  6.76E-03,  avg # of iterations =  1.2

     negative rho (up, down):  7.785E-04 0.000E+00

     total cpu time spent up to now is       38.2 secs

     WARNING: integrated charge=    28.00115945, expected=    28.00000000

     total energy              =    -448.43555176 Ry
     estimated scf accuracy    <       2.39987099 Ry

     iteration #  9     ecut=   140.00 Ry     beta= 0.70
     Davidson diagonalization with overlap
     ethr =  6.76E-03,  avg # of iterations =  1.0

     negative rho (up, down):  9.910E-04 0.000E+00

     total cpu time spent up to now is       41.7 secs

     WARNING: integrated charge=    28.00134367, expected=    28.00000000

     total energy              =    -448.58388179 Ry
     estimated scf accuracy    <       0.04794411 Ry

     iteration # 10     ecut=   140.00 Ry     beta= 0.70
     Davidson diagonalization with overlap
     ethr =  1.71E-04,  avg # of iterations =  6.1

     negative rho (up, down):  1.158E-03 0.000E+00

     total cpu time spent up to now is       47.6 secs

     WARNING: integrated charge=    28.00039608, expected=    28.00000000

     total energy              =    -448.79979190 Ry
     estimated scf accuracy    <       1.96160744 Ry

     iteration # 11     ecut=   140.00 Ry     beta= 0.70
     Davidson diagonalization with overlap
     ethr =  1.71E-04,  avg # of iterations =  5.7

     negative rho (up, down):  8.818E-04 0.000E+00

     total cpu time spent up to now is       52.6 secs

     WARNING: integrated charge=    28.00034333, expected=    28.00000000

     total energy              =    -448.49786034 Ry
     estimated scf accuracy    <       9.44259477 Ry

     iteration # 12     ecut=   140.00 Ry     beta= 0.70
     Davidson diagonalization with overlap
     ethr =  1.71E-04,  avg # of iterations =  4.8

     negative rho (up, down):  5.970E-04 0.000E+00

     total cpu time spent up to now is       57.6 secs

     WARNING: integrated charge=    28.00011052, expected=    28.00000000

     total energy              =    -448.47115507 Ry
     estimated scf accuracy    <       1.40759311 Ry

     iteration # 13     ecut=   140.00 Ry     beta= 0.70
     Davidson diagonalization with overlap
     ethr =  1.71E-04,  avg # of iterations =  4.9

     negative rho (up, down):  4.619E-04 0.000E+00

     total cpu time spent up to now is       62.9 secs

     WARNING: integrated charge=    28.00011536, expected=    28.00000000

     total energy              =    -448.63776907 Ry
     estimated scf accuracy    <       0.22254659 Ry

     iteration # 14     ecut=   140.00 Ry     beta= 0.70
     Davidson diagonalization with overlap
     ethr =  1.71E-04,  avg # of iterations =  3.6

     negative rho (up, down):  4.976E-04 0.000E+00

     total cpu time spent up to now is       67.1 secs

     WARNING: integrated charge=    28.00012210, expected=    28.00000000

     total energy              =    -448.64074139 Ry
     estimated scf accuracy    <       0.96609873 Ry

     iteration # 15     ecut=   140.00 Ry     beta= 0.70
     Davidson diagonalization with overlap
     ethr =  1.71E-04,  avg # of iterations =  1.0

     negative rho (up, down):  4.303E-04 0.000E+00

     total cpu time spent up to now is       70.7 secs

     WARNING: integrated charge=    28.00002050, expected=    28.00000000

     total energy              =    -448.66306394 Ry
     estimated scf accuracy    <       0.82757200 Ry

     iteration # 16     ecut=   140.00 Ry     beta= 0.70
     Davidson diagonalization with overlap
     ethr =  1.71E-04,  avg # of iterations =  1.0

     negative rho (up, down):  7.303E-04 0.000E+00

     total cpu time spent up to now is       74.3 secs

     WARNING: integrated charge=    28.00011085, expected=    28.00000000

     total energy              =    -448.54708927 Ry
     estimated scf accuracy    <       1.01562805 Ry

     iteration # 17     ecut=   140.00 Ry     beta= 0.70
     Davidson diagonalization with overlap
     ethr =  1.71E-04,  avg # of iterations =  4.0

     negative rho (up, down):  7.670E-04 0.000E+00

     total cpu time spent up to now is       79.1 secs

     WARNING: integrated charge=    27.99998147, expected=    28.00000000

     total energy              =    -448.56893638 Ry
     estimated scf accuracy    <       0.13564929 Ry

     iteration # 18     ecut=   140.00 Ry     beta= 0.70
     Davidson diagonalization with overlap
     ethr =  1.71E-04,  avg # of iterations =  1.0

     negative rho (up, down):  8.124E-04 0.000E+00

     total cpu time spent up to now is       82.5 secs

     WARNING: integrated charge=    27.99999234, expected=    28.00000000

     total energy              =    -448.56458520 Ry
     estimated scf accuracy    <       0.08582456 Ry

     iteration # 19     ecut=   140.00 Ry     beta= 0.70
     Davidson diagonalization with overlap
     ethr =  1.71E-04,  avg # of iterations =  1.0

     negative rho (up, down):  8.001E-04 0.000E+00

     total cpu time spent up to now is       85.9 secs

     WARNING: integrated charge=    27.99996587, expected=    28.00000000

     total energy              =    -448.56608953 Ry
     estimated scf accuracy    <       0.05065475 Ry

     iteration # 20     ecut=   140.00 Ry     beta= 0.70
     Davidson diagonalization with overlap
     ethr =  1.71E-04,  avg # of iterations =  1.0

     negative rho (up, down):  9.459E-04 0.000E+00

     total cpu time spent up to now is       89.3 secs

     WARNING: integrated charge=    28.00024467, expected=    28.00000000

     total energy              =    -448.56030223 Ry
     estimated scf accuracy    <       0.05619234 Ry

     iteration # 21     ecut=   140.00 Ry     beta= 0.70
     Davidson diagonalization with overlap
     ethr =  1.71E-04,  avg # of iterations =  1.1

     negative rho (up, down):  1.003E-03 0.000E+00

     total cpu time spent up to now is       92.9 secs

     WARNING: integrated charge=    28.00009709, expected=    28.00000000

     total energy              =    -448.55888779 Ry
     estimated scf accuracy    <       0.00926322 Ry

     iteration # 22     ecut=   140.00 Ry     beta= 0.70
     Davidson diagonalization with overlap
     ethr =  3.31E-05,  avg # of iterations =  4.3

     negative rho (up, down):  9.345E-04 0.000E+00

     total cpu time spent up to now is       97.5 secs

     WARNING: integrated charge=    28.00005074, expected=    28.00000000

     total energy              =    -448.56020153 Ry
     estimated scf accuracy    <       0.00890668 Ry

     iteration # 23     ecut=   140.00 Ry     beta= 0.70
     Davidson diagonalization with overlap
     ethr =  3.18E-05,  avg # of iterations =  1.9

     negative rho (up, down):  9.586E-04 0.000E+00

     total cpu time spent up to now is      101.3 secs

     WARNING: integrated charge=    28.00003355, expected=    28.00000000

     total energy              =    -448.56102087 Ry
     estimated scf accuracy    <       0.00219879 Ry

     iteration # 24     ecut=   140.00 Ry     beta= 0.70
     Davidson diagonalization with overlap
     ethr =  7.85E-06,  avg # of iterations =  1.3

     negative rho (up, down):  9.682E-04 0.000E+00

     total cpu time spent up to now is      104.7 secs

     WARNING: integrated charge=    28.00002938, expected=    28.00000000

     total energy              =    -448.56117157 Ry
     estimated scf accuracy    <       0.00003980 Ry

     iteration # 25     ecut=   140.00 Ry     beta= 0.70
     Davidson diagonalization with overlap
     ethr =  1.42E-07,  avg # of iterations =  5.2

     negative rho (up, down):  9.656E-04 0.000E+00

     total cpu time spent up to now is      110.6 secs

     WARNING: integrated charge=    28.00002599, expected=    28.00000000

     total energy              =    -448.56120893 Ry
     estimated scf accuracy    <       0.00019092 Ry

     iteration # 26     ecut=   140.00 Ry     beta= 0.70
     Davidson diagonalization with overlap
     ethr =  1.42E-07,  avg # of iterations =  1.0

     negative rho (up, down):  9.620E-04 0.000E+00

     total cpu time spent up to now is      114.1 secs

     total energy              =    -448.56120066 Ry
     estimated scf accuracy    <       0.00010310 Ry

     iteration # 27     ecut=   140.00 Ry     beta= 0.70
     Davidson diagonalization with overlap
     ethr =  1.42E-07,  avg # of iterations =  2.1

     negative rho (up, down):  9.584E-04 0.000E+00

     total cpu time spent up to now is      117.9 secs

     total energy              =    -448.56120326 Ry
     estimated scf accuracy    <       0.00000506 Ry

     iteration # 28     ecut=   140.00 Ry     beta= 0.70
     Davidson diagonalization with overlap
     ethr =  1.81E-08,  avg # of iterations =  4.7

     negative rho (up, down):  9.592E-04 0.000E+00

     total cpu time spent up to now is      122.6 secs

     total energy              =    -448.56120481 Ry
     estimated scf accuracy    <       0.00001059 Ry

     iteration # 29     ecut=   140.00 Ry     beta= 0.70
     Davidson diagonalization with overlap
     ethr =  1.81E-08,  avg # of iterations =  1.8

     negative rho (up, down):  9.592E-04 0.000E+00

     total cpu time spent up to now is      126.4 secs

     total energy              =    -448.56120522 Ry
     estimated scf accuracy    <       0.00000050 Ry

     iteration # 30     ecut=   140.00 Ry     beta= 0.70
     Davidson diagonalization with overlap
     ethr =  1.78E-09,  avg # of iterations =  3.6

     negative rho (up, down):  9.592E-04 0.000E+00

     total cpu time spent up to now is      130.9 secs

     total energy              =    -448.56120525 Ry
     estimated scf accuracy    <       0.00000017 Ry

     iteration # 31     ecut=   140.00 Ry     beta= 0.70
     Davidson diagonalization with overlap
     ethr =  6.10E-10,  avg # of iterations =  2.0

     negative rho (up, down):  9.592E-04 0.000E+00

     total cpu time spent up to now is      134.8 secs

     total energy              =    -448.56120525 Ry
     estimated scf accuracy    <       0.00000012 Ry

     iteration # 32     ecut=   140.00 Ry     beta= 0.70
     Davidson diagonalization with overlap
     ethr =  4.11E-10,  avg # of iterations =  2.0

     negative rho (up, down):  9.591E-04 0.000E+00

     total cpu time spent up to now is      138.8 secs

     End of self-consistent calculation

          k = 0.0000 0.0000 0.0000 (  5695 PWs)   bands (ev):

   -72.4165 -42.8140 -38.4730 -38.4730 -38.4730 -18.9417 -18.9417 -18.9417
     7.4446  11.3865  11.3865  13.5402  13.5402  13.5402  15.4286  15.4286
    16.9458  16.9458

          k = 0.0000 0.0000 0.1000 (  5686 PWs)   bands (ev):

   -72.4164 -42.8126 -38.4748 -38.4728 -38.4728 -18.9602 -18.9404 -18.9404
     7.6233  11.4596  11.4687  13.5276  13.5276  13.5764  15.3347  15.4620
    16.7188  16.7188

          k = 0.0000 0.0000 0.2000 (  5686 PWs)   bands (ev):

   -72.4160 -42.8088 -38.4794 -38.4723 -38.4723 -19.0085 -18.9371 -18.9371
     8.1432  11.6331  11.7070  13.4992  13.4992  13.6759  15.0641  15.5229
    16.2057  16.2057

          k = 0.0000 0.0000 0.3000 (  5698 PWs)   bands (ev):

   -72.4156 -42.8042 -38.4850 -38.4717 -38.4717 -19.0677 -18.9330 -18.9330
     8.9524  11.7637  12.0729  13.4759  13.4759  13.8104  14.6553  15.4705
    15.6692  15.6692

          k = 0.0000 0.0000 0.4000 (  5718 PWs)   bands (ev):

   -72.4152 -42.8005 -38.4896 -38.4711 -38.4711 -19.1153 -18.9297 -18.9297
     9.9467  11.6072  12.4936  13.4703  13.4703  13.9313  14.1975  15.1727
    15.2788  15.2788

          k = 0.0000 0.0000-0.5000 (  5702 PWs)   bands (ev):

   -72.4151 -42.7990 -38.4914 -38.4709 -38.4709 -19.1333 -18.9285 -18.9285
    10.8147  11.0724  12.7351  13.4726  13.4726  13.9414  13.9812  14.9686
    15.1353  15.1353

          k = 0.0000 0.1000 0.1000 (  5687 PWs)   bands (ev):

   -72.4162 -42.8111 -38.4750 -38.4743 -38.4726 -18.9603 -18.9574 -18.9391
     7.7987  11.5375  11.5426  13.4533  13.5060  13.6605  15.3232  15.4363
    16.4777  16.4891

          k = 0.0000 0.1000 0.2000 (  5699 PWs)   bands (ev):

   -72.4159 -42.8072 -38.4794 -38.4741 -38.4721 -19.0068 -18.9550 -18.9357
     8.3079  11.7084  11.7703  13.3812  13.4540  13.7556  15.1224  15.4892
    15.9928  16.0503

          k = 0.0000 0.1000 0.3000 (  5686 PWs)   bands (ev):

   -72.4155 -42.8025 -38.4851 -38.4737 -38.4715 -19.0655 -18.9505 -18.9315
     9.0966  11.8324  12.1122  13.3464  13.3975  13.8020  14.7877  15.3276
    15.6674  15.6744

          k = 0.0000 0.1000 0.4000 (  5697 PWs)   bands (ev):

   -72.4151 -42.7986 -38.4898 -38.4733 -38.4710 -19.1126 -18.9468 -18.9281
    10.0567  11.6658  12.4980  13.3474  13.3570  13.7693  14.4373  14.9646
    15.4748  15.5079

          k = 0.0000 0.1000-0.5000 (  5696 PWs)   bands (ev):

   -72.4150 -42.7971 -38.4916 -38.4731 -38.4708 -19.1305 -18.9454 -18.9268
    10.8709  11.1612  12.7187  13.2990  13.3773  13.7288  14.2795  14.7992
    15.3910  15.4266

          k = 0.0000 0.2000 0.2000 (  5706 PWs)   bands (ev):

   -72.4155 -42.8031 -38.4802 -38.4782 -38.4716 -19.0058 -18.9982 -18.9321
     8.7816  11.8299  12.0026  13.2248  13.3554  13.7777  15.1865  15.4630
    15.5474  15.8370

          k = 0.0000 0.2000 0.3000 (  5697 PWs)   bands (ev):

   -72.4151 -42.7979 -38.4855 -38.4788 -38.4710 -19.0597 -18.9959 -18.9275
     9.4983  11.8781  12.3350  13.1229  13.2773  13.6474  15.0693  15.1135
    15.5901  15.7866

          k = 0.0000 0.2000 0.4000 (  5709 PWs)   bands (ev):

   -72.4148 -42.7938 -38.4903 -38.4788 -38.4705 -19.1057 -18.9913 -18.9238
    10.3312  11.6906  12.6548  13.1069  13.2835  13.4375  14.7883  14.9283
    15.6720  15.8799

          k = 0.0000 0.2000-0.5000 (  5702 PWs)   bands (ev):

   -72.4146 -42.7922 -38.4921 -38.4788 -38.4703 -19.1232 -18.9896 -18.9224
    10.9577  11.3152  12.8031  13.1471  13.3059  13.3189  14.6790  14.8226
    15.6766  15.9536

          k = 0.0000 0.3000 0.3000 (  5708 PWs)   bands (ev):

   -72.4147 -42.7923 -38.4865 -38.4846 -38.4704 -19.0558 -19.0483 -18.9226
    10.0601  11.7684  12.7376  12.9434  13.2739  13.3693  15.0026  15.3174
    15.4910  16.0257

          k = 0.0000 0.3000 0.4000 (  5695 PWs)   bands (ev):

   -72.4144 -42.7878 -38.4909 -38.4857 -38.4699 -19.0971 -19.0460 -18.9185
    10.6205  11.5451  12.8649  13.0940  13.1000  13.5129  14.8520  15.3260
    15.6420  16.2948

          k = 0.0000 0.3000-0.5000 (  5698 PWs)   bands (ev):

   -72.4142 -42.7861 -38.4929 -38.4858 -38.4697 -19.1140 -19.0438 -18.9170
    10.9388  11.3482  12.8918  12.9460  13.2069  13.8103  14.6345  15.3382
    15.7571  16.4473

          k = 0.0000 0.4000 0.4000 (  5678 PWs)   bands (ev):

   -72.4140 -42.7830 -38.4917 -38.4909 -38.4694 -19.0914 -19.0885 -18.9143
    10.7964  11.3715  12.7188  12.8415  13.6701  13.9493  15.0167  15.3950
    15.6427  16.6240

          k = 0.0000 0.4000-0.5000 (  5716 PWs)   bands (ev):

   -72.4139 -42.7811 -38.4934 -38.4915 -38.4693 -19.1067 -19.0873 -18.9126
    10.8518  11.2958  12.7028  12.7138  13.8915  14.5854  14.6329  15.4897
    15.6919  16.7922

          k = 0.0000-0.5000-0.5000 (  5712 PWs)   bands (ev):

   -72.4138 -42.7792 -38.4937 -38.4937 -38.4691 -19.1038 -19.1038 -18.9109
    10.8088  11.2664  12.6340  12.6340  14.3980  14.7158  15.0603  15.0603
    15.7813  16.9162

          k = 0.1000 0.1000 0.1000 (  5695 PWs)   bands (ev):

   -72.4161 -42.8096 -38.4748 -38.4748 -38.4738 -18.9600 -18.9561 -18.9561
     7.9713  11.6147  11.6147  13.4302  13.4302  13.7200  15.3702  15.3702
    16.1122  16.6987

          k = 0.1000 0.1000 0.2000 (  5700 PWs)   bands (ev):

   -72.4158 -42.8056 -38.4794 -38.4743 -38.4737 -19.0051 -18.9544 -18.9527
     8.4713  11.7964  11.8221  13.3310  13.3694  13.7609  15.1811  15.4586
    15.7498  16.1823

          k = 0.1000 0.1000 0.3000 (  5692 PWs)   bands (ev):

   -72.4153 -42.8007 -38.4852 -38.4736 -38.4734 -19.0633 -18.9493 -18.9485
     9.2419  11.9226  12.1337  13.2867  13.2869  13.7099  14.9029  15.3221
    15.6552  15.7130

          k = 0.1000 0.1000 0.4000 (  5704 PWs)   bands (ev):

   -72.4150 -42.7968 -38.4899 -38.4731 -38.4731 -19.1101 -18.9452 -18.9452
    10.1717  11.7433  12.4818  13.1830  13.3395  13.6246  14.6190  15.0202
    15.2855  15.8422

          k = 0.1000 0.1000-0.5000 (  5706 PWs)   bands (ev):

   -72.4149 -42.7953 -38.4917 -38.4730 -38.4729 -19.1278 -18.9439 -18.9437
    10.9406  11.2587  12.6847  13.0948  13.4251  13.5672  14.4886  14.8271
    15.1546  15.9303

          k = 0.1000 0.2000 0.2000 (  5710 PWs)   bands (ev):

   -72.4154 -42.8014 -38.4799 -38.4783 -38.4735 -19.0037 -18.9969 -18.9496
     8.9401  11.9275  12.0454  13.1876  13.2625  13.6552  15.2480  15.4437
    15.5822  15.9622

          k = 0.1000 0.2000 0.3000 (  5700 PWs)   bands (ev):

   -72.4150 -42.7962 -38.4854 -38.4787 -38.4730 -19.0576 -18.9943 -18.9448
     9.6466  11.9958  12.3368  13.0778  13.1776  13.4628  15.1482  15.2614
    15.5892  15.8731

          k = 0.1000 0.2000 0.4000 (  5703 PWs)   bands (ev):

   -72.4146 -42.7920 -38.4903 -38.4786 -38.4726 -19.1034 -18.9897 -18.9409
    10.4610  11.8060  12.5908  13.0045  13.2136  13.3561  14.9108  15.0179
    15.4216  16.2230

          k = 0.1000 0.2000-0.5000 (  5688 PWs)   bands (ev):

   -72.4145 -42.7904 -38.4922 -38.4786 -38.4724 -19.1208 -18.9880 -18.9394
    11.0628  11.4344  12.7177  12.9530  13.2479  13.3867  14.7179  14.9533
    15.3074  16.5055

          k = 0.1000 0.3000 0.3000 (  5682 PWs)   bands (ev):

   -72.4146 -42.7906 -38.4863 -38.4846 -38.4725 -19.0536 -19.0469 -18.9398
    10.2109  11.8875  12.7323  12.9066  13.1515  13.1995  15.0876  15.4427
    15.4539  16.1865

          k = 0.1000 0.3000 0.4000 (  5702 PWs)   bands (ev):

   -72.4142 -42.7861 -38.4908 -38.4855 -38.4720 -19.0952 -19.0444 -18.9357
    10.7651  11.6658  12.8213  12.9316  13.1073  13.3989  14.8834  15.3578
    15.5204  16.6053

          k = 0.1000 0.3000-0.5000 (  5720 PWs)   bands (ev):

   -72.4141 -42.7844 -38.4928 -38.4856 -38.4718 -19.1121 -19.0422 -18.9341
    11.0706  11.4764  12.8227  12.8553  13.1651  13.7085  14.6488  15.3936
    15.4430  16.7557

          k = 0.1000 0.4000 0.4000 (  5699 PWs)   bands (ev):

   -72.4139 -42.7813 -38.4914 -38.4908 -38.4715 -19.0896 -19.0871 -18.9314
    10.9404  11.4937  12.6901  12.7873  13.6066  13.7759  14.9409  15.2057
    15.7270  16.8493

          k = 0.1000 0.4000-0.5000 (  5710 PWs)   bands (ev):

   -72.4138 -42.7795 -38.4932 -38.4913 -38.4714 -19.1051 -19.0858 -18.9297
    10.9903  11.4208  12.6707  12.6808  13.8004  14.3253  14.6266  15.1753
    15.7787  16.9302

          k = 0.1000-0.5000-0.5000 (  5708 PWs)   bands (ev):

   -72.4136 -42.7776 -38.4934 -38.4934 -38.4712 -19.1024 -19.1024 -18.9281
    10.9481  11.3896  12.6098  12.6098  14.4008  14.6578  14.6578  14.7184
    15.8650  17.4565

          k = 0.2000 0.2000 0.2000 (  5689 PWs)   bands (ev):

   -72.4151 -42.7971 -38.4794 -38.4794 -38.4776 -19.0005 -18.9933 -18.9933
     9.3918  12.1639  12.1639  13.0901  13.0901  13.3420  15.3849  15.3849
    15.7706  16.1602

          k = 0.2000 0.2000 0.3000 (  5703 PWs)   bands (ev):

   -72.4146 -42.7917 -38.4853 -38.4787 -38.4781 -19.0523 -18.9910 -18.9889
    10.0601  12.3003  12.3298  12.9638  12.9862  13.1068  15.2903  15.3526
    15.6886  16.1324

          k = 0.2000 0.2000 0.4000 (  5694 PWs)   bands (ev):

   -72.4143 -42.7874 -38.4904 -38.4782 -38.4781 -19.0975 -18.9856 -18.9854
    10.7986  12.0314  12.5014  12.8361  13.0334  13.2137  14.9966  15.1797
    15.3947  16.5853

          k = 0.2000 0.2000-0.5000 (  5696 PWs)   bands (ev):

   -72.4142 -42.7857 -38.4923 -38.4783 -38.4779 -19.1147 -18.9840 -18.9836
    11.3015  11.6860  12.6071  12.7502  13.0844  13.3640  14.7190  15.1210
    15.3068  16.6672

          k = 0.2000 0.3000 0.3000 (  5713 PWs)   bands (ev):

   -72.4142 -42.7861 -38.4857 -38.4845 -38.4779 -19.0480 -19.0432 -18.9846
    10.6323  12.2017  12.7116  12.8143  12.8414  12.9032  15.1793  15.3218
    15.7776  16.3670

          k = 0.2000 0.3000 0.4000 (  5711 PWs)   bands (ev):

   -72.4139 -42.7816 -38.4905 -38.4850 -38.4776 -19.0902 -19.0402 -18.9803
    11.1657  11.9674  12.6994  12.7198  12.9422  13.1882  14.9164  15.1397
    15.7614  16.6230

          k = 0.2000 0.3000-0.5000 (  5714 PWs)   bands (ev):

   -72.4138 -42.7799 -38.4925 -38.4850 -38.4774 -19.1071 -19.0382 -18.9786
    11.4294  11.7933  12.6785  12.6828  13.0081  13.4724  14.6472  15.0721
    15.7401  16.7515

          k = 0.2000 0.4000 0.4000 (  5728 PWs)   bands (ev):

   -72.4136 -42.7769 -38.4908 -38.4904 -38.4771 -19.0851 -19.0833 -18.9760
    11.3487  11.8080  12.6204  12.6705  13.3610  13.4096  14.8710  14.8970
    15.9917  16.8284

          k = 0.2000 0.4000-0.5000 (  5710 PWs)   bands (ev):

   -72.4134 -42.7751 -38.4927 -38.4906 -38.4769 -19.1009 -19.0819 -18.9744
    11.3825  11.7452  12.5967  12.6058  13.5029  13.8121  14.5807  14.8773
    16.0409  16.9800

          k = 0.2000-0.5000-0.5000 (  5712 PWs)   bands (ev):

   -72.4133 -42.7733 -38.4927 -38.4927 -38.4767 -19.0985 -19.0985 -18.9728
    11.3441  11.7125  12.5528  12.5528  13.9913  13.9913  14.4080  14.7121
    16.1199  17.1720

          k = 0.3000 0.3000 0.3000 (  5740 PWs)   bands (ev):

   -72.4138 -42.7805 -38.4849 -38.4849 -38.4843 -19.0420 -19.0386 -19.0386
    11.2107  12.4274  12.6680  12.6680  12.7098  12.7098  15.1232  15.1232
    16.2102  16.2102

          k = 0.3000 0.3000 0.4000 (  5723 PWs)   bands (ev):

   -72.4135 -42.7760 -38.4902 -38.4845 -38.4843 -19.0840 -19.0351 -19.0349
    11.6815  12.1873  12.6101  12.6397  12.7262  13.0461  14.8411  14.9694
    16.1599  16.6345

          k = 0.3000 0.3000-0.5000 (  5724 PWs)   bands (ev):

   -72.4133 -42.7743 -38.4922 -38.4845 -38.4841 -19.1008 -19.0335 -19.0330
    11.8329  12.0705  12.5835  12.6151  12.8244  13.2916  14.5941  14.9160
    16.1494  16.8164

          k = 0.3000 0.4000 0.4000 (  5728 PWs)   bands (ev):

   -72.4131 -42.7715 -38.4900 -38.4898 -38.4839 -19.0794 -19.0786 -19.0308
    11.9376  12.1460  12.5503  12.6092  12.9352  13.1206  14.7038  14.7921
    16.4135  16.8481

          k = 0.3000 0.4000-0.5000 (  5712 PWs)   bands (ev):

   -72.4130 -42.7698 -38.4920 -38.4898 -38.4837 -19.0957 -19.0771 -19.0292
    11.9387  12.1193  12.5374  12.5574  13.0947  13.3363  14.5202  14.7466
    16.4570  17.0222

          k = 0.3000-0.5000-0.5000 (  5700 PWs)   bands (ev):

   -72.4129 -42.7681 -38.4919 -38.4919 -38.4834 -19.0938 -19.0938 -19.0276
    11.9222  12.1076  12.5020  12.5020  13.4087  13.4087  14.4169  14.6584
    16.5338  17.1906

          k = 0.4000 0.4000 0.4000 (  5719 PWs)   bands (ev):

   -72.4128 -42.7671 -38.4894 -38.4893 -38.4893 -19.0749 -19.0748 -19.0748
    12.2565  12.5230  12.5230  12.5586  12.8533  12.8533  14.6205  14.6205
    16.8719  16.8719

          k = 0.4000 0.4000-0.5000 (  5728 PWs)   bands (ev):

   -72.4127 -42.7654 -38.4915 -38.4892 -38.4891 -19.0915 -19.0733 -19.0731
    12.3419  12.3546  12.5370  12.7280  12.7540  13.0475  14.4807  14.5985
    16.8817  17.0868

          k = 0.4000-0.5000-0.5000 (  5740 PWs)   bands (ev):

   -72.4125 -42.7638 -38.4913 -38.4913 -38.4889 -19.0899 -19.0899 -19.0717
    12.4181  12.4999  12.4999  12.5198  12.9913  12.9913  14.4241  14.5279
    16.9925  17.2057

          k =-0.5000-0.5000-0.5000 (  5832 PWs)   bands (ev):

   -72.4124 -42.7621 -38.4910 -38.4910 -38.4910 -19.0885 -19.0885 -19.0885
    12.5333  12.5333  12.5333  12.8117  12.8117  12.8117  14.4269  14.4269
    17.2115  21.3268

     the Fermi energy is    14.3886 ev

!    total energy              =    -448.56120526 Ry
     estimated scf accuracy    <          1.2E-09 Ry
     smearing contrib. (-TS)   =      -0.00001999 Ry
     internal energy E=F+TS    =    -448.56118527 Ry

     The total energy is F=E-TS. E is the sum of the following terms:
     one-electron contribution =    -174.25295035 Ry
     hartree contribution      =      99.57299910 Ry
     xc contribution           =     -52.61742689 Ry
     ewald contribution        =    -245.11387054 Ry
     one-center paw contrib.   =     -76.14993660 Ry

     convergence has been achieved in  32 iterations

     negative rho (up, down):  9.591E-04 0.000E+00

     Forces acting on atoms (cartesian axes, Ry/au):

     atom    1 type  1   force =     0.00000000    0.00000000    0.00000000
     atom    2 type  2   force =     0.00000000    0.00000000    0.00000000

     Total force =     0.000000     Total SCF correction =     0.000000


     Computing stress (Cartesian axis) and pressure


     negative rho (up, down):  9.591E-04 0.000E+00
          total   stress  (Ry/bohr**3)                   (kbar)     P=     -219.72
  -0.00149360   0.00000000   0.00000000         -219.72        0.00        0.00
   0.00000000  -0.00149360   0.00000000            0.00     -219.72        0.00
   0.00000000   0.00000000  -0.00149360            0.00        0.00     -219.72


     Writing all to output data dir ./out/TiFe7.save/ :
     XML data file, charge density, pseudopotentials, collected wavefunctions

     init_run     :      1.87s CPU      2.13s WALL (       1 calls)
     electrons    :    123.38s CPU    136.47s WALL (       1 calls)
     forces       :      0.65s CPU      0.75s WALL (       1 calls)
     stress       :      2.98s CPU      3.30s WALL (       1 calls)

     Called by init_run:
     wfcinit      :      1.31s CPU      1.42s WALL (       1 calls)
     potinit      :      0.16s CPU      0.20s WALL (       1 calls)
     hinit0       :      0.17s CPU      0.18s WALL (       1 calls)

     Called by electrons:
     c_bands      :     93.11s CPU     99.39s WALL (      32 calls)
     sum_band     :     19.43s CPU     23.32s WALL (      32 calls)
     v_of_rho     :      1.78s CPU      1.95s WALL (      33 calls)
     newd         :      5.96s CPU      8.63s WALL (      33 calls)
     PAW_pot      :      2.83s CPU      2.96s WALL (      33 calls)
     mix_rho      :      0.37s CPU      0.40s WALL (      32 calls)

     Called by c_bands:
     init_us_2    :      2.17s CPU      2.28s WALL (    3752 calls)
     cegterg      :     88.87s CPU     94.97s WALL (    1792 calls)

     Called by *egterg:
     cdiaghg      :      2.59s CPU      2.68s WALL (    6635 calls)
     h_psi        :     64.96s CPU     70.23s WALL (    6691 calls)
     s_psi        :      3.69s CPU      3.83s WALL (    6691 calls)
     g_psi        :      0.18s CPU      0.18s WALL (    4843 calls)

     Called by h_psi:
     h_psi:calbec :      6.56s CPU      7.01s WALL (    6691 calls)
     vloc_psi     :     54.11s CPU     58.73s WALL (    6691 calls)
     add_vuspsi   :      3.75s CPU      3.93s WALL (    6691 calls)

     General routines
     calbec       :      9.67s CPU     10.32s WALL (    9435 calls)
     fft          :      1.02s CPU      1.18s WALL (     452 calls)
     ffts         :      0.04s CPU      0.04s WALL (      65 calls)
     fftw         :     45.97s CPU     50.14s WALL (  194344 calls)
     interpolate  :      0.12s CPU      0.13s WALL (      33 calls)

     Parallel routines

     PWSCF        :   2m 9.14s CPU   2m23.00s WALL


   This run was terminated on:  21:44:45  31Oct2025            

=------------------------------------------------------------------------------=
   JOB DONE.
=------------------------------------------------------------------------------=
