
     Program PWSCF v.7.4.1 starts on 31Oct2025 at 21:30:29 

     This program is part of the open-source Quantum ESPRESSO suite
     for quantum simulation of materials; please cite
         "P. Giannozzi et al., J. Phys.:Condens. Matter 21 395502 (2009);
         "P. Giannozzi et al., J. Phys.:Condens. Matter 29 465901 (2017);
         "P. Giannozzi et al., J. Chem. Phys. 152 154105 (2020);
          URL http://www.quantum-espresso.org", 
     in publications or presentations arising from this work. More details at
     http://www.quantum-espresso.org/quote

     Parallel version (MPI), running on     6 processors

     MPI processes distributed on     1 nodes
     1972 MiB available memory on the printing compute node when the environment starts

     Reading input from TiFe2.in

     Current dimensions of program PWSCF are:
     Max number of different atomic species (ntypx) = 10
     Max number of k-points (npk) =  40000
     Max angular momentum in pseudopotentials (lmaxx) =  4
     file Fe.pbe-spn-kjpaw_psl.0.2.1.UPF: wavefunction(s)  3D renormalized

     IMPORTANT: XC functional enforced from input :
     Exchange-correlation= PBE
                           (   1   4   3   4   0   0   0)
     Any further DFT definition will be discarded
     Please, verify this is what you really want

     Message from routine setup:
     using ibrav=0 with symmetry is DISCOURAGED, use correct ibrav instead

     R & G space division:  proc/nbgrp/npool/nimage =       6
     Subspace diagonalization in iterative solution of the eigenvalue problem:
     a serial algorithm will be used


     Parallelization info
     --------------------
     sticks:   dense  smooth     PW     G-vecs:    dense   smooth      PW
     Min         585     234     69                26031     6600    1039
     Max         586     235     71                26034     6603    1040
     Sum        3513    1405    421               156195    39607    6235

     Using Slab Decomposition



     bravais-lattice index     =            0
     lattice parameter (alat)  =       5.6088  a.u.
     unit-cell volume          =     176.4484 (a.u.)^3
     number of atoms/cell      =            2
     number of atomic types    =            2
     number of electrons       =        28.00
     number of Kohn-Sham states=           18
     kinetic-energy cutoff     =     140.0000  Ry
     charge density cutoff     =    1400.0000  Ry
     scf convergence threshold =      1.0E-08
     mixing beta               =       0.7000
     number of iterations used =            8  plain     mixing
     Exchange-correlation= PBE
                           (   1   4   3   4   0   0   0)

     celldm(1)=   5.608833  celldm(2)=   0.000000  celldm(3)=   0.000000
     celldm(4)=   0.000000  celldm(5)=   0.000000  celldm(6)=   0.000000

     crystal axes: (cart. coord. in units of alat)
               a(1) = (   1.000000   0.000000   0.000000 )  
               a(2) = (   0.000000   1.000000   0.000000 )  
               a(3) = (   0.000000   0.000000   1.000000 )  

     reciprocal axes: (cart. coord. in units 2 pi/alat)
               b(1) = (  1.000000  0.000000  0.000000 )  
               b(2) = (  0.000000  1.000000  0.000000 )  
               b(3) = (  0.000000  0.000000  1.000000 )  


     PseudoPot. # 1 for Fe read from file:
     /home/rafi/QE/qe-7.4.1/pseudo/Fe.pbe-spn-kjpaw_psl.0.2.1.UPF
     MD5 check sum: e86618425769142926afa95317d90200
     Pseudo is Projector augmented-wave + core cor, Zval = 16.0
     Generated using "atomic" code by A. Dal Corso  v.5.0.99 svn rev. 10869
     Shape of augmentation charge: PSQ
     Using radial grid of 1191 points,  6 beta functions with: 
                l(1) =   0
                l(2) =   0
                l(3) =   1
                l(4) =   1
                l(5) =   2
                l(6) =   2
     Q(r) pseudized with 0 coefficients 


     PseudoPot. # 2 for Ti read from file:
     /home/rafi/QE/qe-7.4.1/pseudo/ti_pbe_v1.4.uspp.F.UPF
     MD5 check sum: 88a00a6731bd790ddea75d31a80cb452
     Pseudo is Ultrasoft + core correction, Zval = 12.0
     Generated by new atomic code, or converted to UPF format
     Using radial grid of  851 points,  6 beta functions with: 
                l(1) =   0
                l(2) =   0
                l(3) =   1
                l(4) =   1
                l(5) =   2
                l(6) =   2
     Q(r) pseudized with  6 coefficients,  rinner =    1.000   1.000   1.000
                                                       1.000   1.000

     atomic species   valence    mass     pseudopotential
     Fe               16.00    55.84500     Fe( 1.00)
     Ti               12.00    47.86700     Ti( 1.00)

     48 Sym. Ops., with inversion, found



   Cartesian axes

     site n.     atom                  positions (alat units)
         1        Fe     tau(   1) = (   0.5000000   0.5000000   0.5000000  )
         2        Ti     tau(   2) = (   0.0000000   0.0000000   0.0000000  )

     number of k points=    56  Marzari-Vanderbilt smearing, width (Ry)=  0.0050
                       cart. coord. in units 2pi/alat
        k(    1) = (   0.0000000   0.0000000   0.0000000), wk =   0.0020000
        k(    2) = (   0.0000000   0.0000000   0.1000000), wk =   0.0120000
        k(    3) = (   0.0000000   0.0000000   0.2000000), wk =   0.0120000
        k(    4) = (   0.0000000   0.0000000   0.3000000), wk =   0.0120000
        k(    5) = (   0.0000000   0.0000000   0.4000000), wk =   0.0120000
        k(    6) = (   0.0000000   0.0000000  -0.5000000), wk =   0.0060000
        k(    7) = (   0.0000000   0.1000000   0.1000000), wk =   0.0240000
        k(    8) = (   0.0000000   0.1000000   0.2000000), wk =   0.0480000
        k(    9) = (   0.0000000   0.1000000   0.3000000), wk =   0.0480000
        k(   10) = (   0.0000000   0.1000000   0.4000000), wk =   0.0480000
        k(   11) = (   0.0000000   0.1000000  -0.5000000), wk =   0.0240000
        k(   12) = (   0.0000000   0.2000000   0.2000000), wk =   0.0240000
        k(   13) = (   0.0000000   0.2000000   0.3000000), wk =   0.0480000
        k(   14) = (   0.0000000   0.2000000   0.4000000), wk =   0.0480000
        k(   15) = (   0.0000000   0.2000000  -0.5000000), wk =   0.0240000
        k(   16) = (   0.0000000   0.3000000   0.3000000), wk =   0.0240000
        k(   17) = (   0.0000000   0.3000000   0.4000000), wk =   0.0480000
        k(   18) = (   0.0000000   0.3000000  -0.5000000), wk =   0.0240000
        k(   19) = (   0.0000000   0.4000000   0.4000000), wk =   0.0240000
        k(   20) = (   0.0000000   0.4000000  -0.5000000), wk =   0.0240000
        k(   21) = (   0.0000000  -0.5000000  -0.5000000), wk =   0.0060000
        k(   22) = (   0.1000000   0.1000000   0.1000000), wk =   0.0160000
        k(   23) = (   0.1000000   0.1000000   0.2000000), wk =   0.0480000
        k(   24) = (   0.1000000   0.1000000   0.3000000), wk =   0.0480000
        k(   25) = (   0.1000000   0.1000000   0.4000000), wk =   0.0480000
        k(   26) = (   0.1000000   0.1000000  -0.5000000), wk =   0.0240000
        k(   27) = (   0.1000000   0.2000000   0.2000000), wk =   0.0480000
        k(   28) = (   0.1000000   0.2000000   0.3000000), wk =   0.0960000
        k(   29) = (   0.1000000   0.2000000   0.4000000), wk =   0.0960000
        k(   30) = (   0.1000000   0.2000000  -0.5000000), wk =   0.0480000
        k(   31) = (   0.1000000   0.3000000   0.3000000), wk =   0.0480000
        k(   32) = (   0.1000000   0.3000000   0.4000000), wk =   0.0960000
        k(   33) = (   0.1000000   0.3000000  -0.5000000), wk =   0.0480000
        k(   34) = (   0.1000000   0.4000000   0.4000000), wk =   0.0480000
        k(   35) = (   0.1000000   0.4000000  -0.5000000), wk =   0.0480000
        k(   36) = (   0.1000000  -0.5000000  -0.5000000), wk =   0.0120000
        k(   37) = (   0.2000000   0.2000000   0.2000000), wk =   0.0160000
        k(   38) = (   0.2000000   0.2000000   0.3000000), wk =   0.0480000
        k(   39) = (   0.2000000   0.2000000   0.4000000), wk =   0.0480000
        k(   40) = (   0.2000000   0.2000000  -0.5000000), wk =   0.0240000
        k(   41) = (   0.2000000   0.3000000   0.3000000), wk =   0.0480000
        k(   42) = (   0.2000000   0.3000000   0.4000000), wk =   0.0960000
        k(   43) = (   0.2000000   0.3000000  -0.5000000), wk =   0.0480000
        k(   44) = (   0.2000000   0.4000000   0.4000000), wk =   0.0480000
        k(   45) = (   0.2000000   0.4000000  -0.5000000), wk =   0.0480000
        k(   46) = (   0.2000000  -0.5000000  -0.5000000), wk =   0.0120000
        k(   47) = (   0.3000000   0.3000000   0.3000000), wk =   0.0160000
        k(   48) = (   0.3000000   0.3000000   0.4000000), wk =   0.0480000
        k(   49) = (   0.3000000   0.3000000  -0.5000000), wk =   0.0240000
        k(   50) = (   0.3000000   0.4000000   0.4000000), wk =   0.0480000
        k(   51) = (   0.3000000   0.4000000  -0.5000000), wk =   0.0480000
        k(   52) = (   0.3000000  -0.5000000  -0.5000000), wk =   0.0120000
        k(   53) = (   0.4000000   0.4000000   0.4000000), wk =   0.0160000
        k(   54) = (   0.4000000   0.4000000  -0.5000000), wk =   0.0240000
        k(   55) = (   0.4000000  -0.5000000  -0.5000000), wk =   0.0120000
        k(   56) = (  -0.5000000  -0.5000000  -0.5000000), wk =   0.0020000

     Dense  grid:   156195 G-vectors     FFT dimensions: (  72,  72,  72)

     Smooth grid:    39607 G-vectors     FFT dimensions: (  45,  45,  45)

     Estimated max dynamical RAM per process >     114.91 MB

     Estimated total dynamical RAM >     689.46 MB

     Check: negative core charge=   -0.000003

     Initial potential from superposition of free atoms

     starting charge      26.9995, renormalised to      28.0000

     negative rho (up, down):  1.392E-03 0.000E+00
     Starting wfcs are   23 randomized atomic wfcs
     Checking if some PAW data can be deallocated... 

     total cpu time spent up to now is        2.1 secs

     Self-consistent Calculation

     iteration #  1     ecut=   140.00 Ry     beta= 0.70
     Davidson diagonalization with overlap
     ethr =  1.00E-02,  avg # of iterations =  2.2

     negative rho (up, down):  7.577E-05 0.000E+00

     total cpu time spent up to now is        5.8 secs

     WARNING: integrated charge=    28.00057370, expected=    28.00000000

     total energy              =    -434.32620070 Ry
     estimated scf accuracy    <      18.14768735 Ry

     iteration #  2     ecut=   140.00 Ry     beta= 0.70
     Davidson diagonalization with overlap
     ethr =  1.00E-02,  avg # of iterations =  6.0

     negative rho (up, down):  2.164E-05 0.000E+00

     total cpu time spent up to now is       11.9 secs

     WARNING: integrated charge=    28.00070866, expected=    28.00000000

     total energy              =    -448.47144800 Ry
     estimated scf accuracy    <      68.48206744 Ry

     iteration #  3     ecut=   140.00 Ry     beta= 0.70
     Davidson diagonalization with overlap
     ethr =  1.00E-02,  avg # of iterations =  3.2

     negative rho (up, down):  1.954E-04 0.000E+00

     total cpu time spent up to now is       16.2 secs

     WARNING: integrated charge=    28.00038769, expected=    28.00000000

     total energy              =    -448.66623297 Ry
     estimated scf accuracy    <      17.32508987 Ry

     iteration #  4     ecut=   140.00 Ry     beta= 0.70
     Davidson diagonalization with overlap
     ethr =  1.00E-02,  avg # of iterations =  2.2

     negative rho (up, down):  2.441E-04 0.000E+00

     total cpu time spent up to now is       19.8 secs

     WARNING: integrated charge=    28.00037516, expected=    28.00000000

     total energy              =    -449.12836168 Ry
     estimated scf accuracy    <       5.25391500 Ry

     iteration #  5     ecut=   140.00 Ry     beta= 0.70
     Davidson diagonalization with overlap
     ethr =  1.00E-02,  avg # of iterations =  1.1

     negative rho (up, down):  4.875E-04 0.000E+00

     total cpu time spent up to now is       23.0 secs

     WARNING: integrated charge=    28.00032985, expected=    28.00000000

     total energy              =    -448.92933473 Ry
     estimated scf accuracy    <       4.63975629 Ry

     iteration #  6     ecut=   140.00 Ry     beta= 0.70
     Davidson diagonalization with overlap
     ethr =  1.00E-02,  avg # of iterations =  1.1

     negative rho (up, down):  1.010E-03 0.000E+00

     total cpu time spent up to now is       26.1 secs

     WARNING: integrated charge=    28.00018570, expected=    28.00000000

     total energy              =    -448.12019676 Ry
     estimated scf accuracy    <       4.14461977 Ry

     iteration #  7     ecut=   140.00 Ry     beta= 0.70
     Davidson diagonalization with overlap
     ethr =  1.00E-02,  avg # of iterations =  2.1

     negative rho (up, down):  1.149E-03 0.000E+00

     total cpu time spent up to now is       29.7 secs

     WARNING: integrated charge=    28.00018454, expected=    28.00000000

     total energy              =    -448.67506518 Ry
     estimated scf accuracy    <       0.55698586 Ry

     iteration #  8     ecut=   140.00 Ry     beta= 0.70
     Davidson diagonalization with overlap
     ethr =  1.99E-03,  avg # of iterations =  4.8

     negative rho (up, down):  6.145E-04 0.000E+00

     total cpu time spent up to now is       33.8 secs

     WARNING: integrated charge=    28.00012181, expected=    28.00000000

     total energy              =    -447.88545534 Ry
     estimated scf accuracy    <       6.19677534 Ry

     iteration #  9     ecut=   140.00 Ry     beta= 0.70
     Davidson diagonalization with overlap
     ethr =  1.99E-03,  avg # of iterations =  4.3

     negative rho (up, down):  5.354E-04 0.000E+00

     total cpu time spent up to now is       37.9 secs

     WARNING: integrated charge=    28.00003048, expected=    28.00000000

     total energy              =    -448.74569533 Ry
     estimated scf accuracy    <       1.66737157 Ry

     iteration # 10     ecut=   140.00 Ry     beta= 0.70
     Davidson diagonalization with overlap
     ethr =  1.99E-03,  avg # of iterations =  1.0

     negative rho (up, down):  4.947E-04 0.000E+00

     total cpu time spent up to now is       41.0 secs

     WARNING: integrated charge=    28.00000618, expected=    28.00000000

     total energy              =    -448.59529224 Ry
     estimated scf accuracy    <       1.96595232 Ry

     iteration # 11     ecut=   140.00 Ry     beta= 0.70
     Davidson diagonalization with overlap
     ethr =  1.99E-03,  avg # of iterations =  1.7

     negative rho (up, down):  5.379E-04 0.000E+00

     total cpu time spent up to now is       44.3 secs

     WARNING: integrated charge=    28.00001166, expected=    28.00000000

     total energy              =    -448.63205932 Ry
     estimated scf accuracy    <       0.45594421 Ry

     iteration # 12     ecut=   140.00 Ry     beta= 0.70
     Davidson diagonalization with overlap
     ethr =  1.63E-03,  avg # of iterations =  1.1

     negative rho (up, down):  3.258E-04 0.000E+00

     total cpu time spent up to now is       47.4 secs

     WARNING: integrated charge=    28.00001397, expected=    28.00000000

     total energy              =    -448.74092064 Ry
     estimated scf accuracy    <       0.31170362 Ry

     iteration # 13     ecut=   140.00 Ry     beta= 0.70
     Davidson diagonalization with overlap
     ethr =  1.11E-03,  avg # of iterations =  1.4

     negative rho (up, down):  2.341E-04 0.000E+00

     total cpu time spent up to now is       50.6 secs

     WARNING: integrated charge=    28.00000832, expected=    28.00000000

     total energy              =    -448.84243998 Ry
     estimated scf accuracy    <       1.41007092 Ry

     iteration # 14     ecut=   140.00 Ry     beta= 0.70
     Davidson diagonalization with overlap
     ethr =  1.11E-03,  avg # of iterations =  1.1

     negative rho (up, down):  2.095E-04 0.000E+00

     total cpu time spent up to now is       53.7 secs

     WARNING: integrated charge=    28.00000986, expected=    28.00000000

     total energy              =    -448.86336639 Ry
     estimated scf accuracy    <       1.80808244 Ry

     iteration # 15     ecut=   140.00 Ry     beta= 0.70
     Davidson diagonalization with overlap
     ethr =  1.11E-03,  avg # of iterations =  1.0

     negative rho (up, down):  3.627E-04 0.000E+00

     total cpu time spent up to now is       56.9 secs

     total energy              =    -448.76619314 Ry
     estimated scf accuracy    <       1.92430467 Ry

     iteration # 16     ecut=   140.00 Ry     beta= 0.70
     Davidson diagonalization with overlap
     ethr =  1.11E-03,  avg # of iterations =  1.0

     negative rho (up, down):  7.506E-04 0.000E+00

     total cpu time spent up to now is       60.0 secs

     WARNING: integrated charge=    27.99998539, expected=    28.00000000

     total energy              =    -448.54966155 Ry
     estimated scf accuracy    <       1.42880389 Ry

     iteration # 17     ecut=   140.00 Ry     beta= 0.70
     Davidson diagonalization with overlap
     ethr =  1.11E-03,  avg # of iterations =  2.3

     negative rho (up, down):  1.348E-03 0.000E+00

     total cpu time spent up to now is       63.6 secs

     WARNING: integrated charge=    27.99997393, expected=    28.00000000

     total energy              =    -448.52176193 Ry
     estimated scf accuracy    <       0.16055998 Ry

     iteration # 18     ecut=   140.00 Ry     beta= 0.70
     Davidson diagonalization with overlap
     ethr =  5.73E-04,  avg # of iterations =  4.6

     negative rho (up, down):  1.327E-03 0.000E+00

     total cpu time spent up to now is       68.3 secs

     WARNING: integrated charge=    27.99998104, expected=    28.00000000

     total energy              =    -448.65090291 Ry
     estimated scf accuracy    <       1.52138462 Ry

     iteration # 19     ecut=   140.00 Ry     beta= 0.70
     Davidson diagonalization with overlap
     ethr =  5.73E-04,  avg # of iterations =  1.0

     negative rho (up, down):  1.057E-03 0.000E+00

     total cpu time spent up to now is       71.4 secs

     WARNING: integrated charge=    27.99997304, expected=    28.00000000

     total energy              =    -448.52541873 Ry
     estimated scf accuracy    <       1.29973656 Ry

     iteration # 20     ecut=   140.00 Ry     beta= 0.70
     Davidson diagonalization with overlap
     ethr =  5.73E-04,  avg # of iterations =  3.8

     negative rho (up, down):  9.546E-04 0.000E+00

     total cpu time spent up to now is       75.2 secs

     WARNING: integrated charge=    27.99998999, expected=    28.00000000

     total energy              =    -448.58439867 Ry
     estimated scf accuracy    <       0.04520916 Ry

     iteration # 21     ecut=   140.00 Ry     beta= 0.70
     Davidson diagonalization with overlap
     ethr =  1.61E-04,  avg # of iterations =  1.7

     negative rho (up, down):  1.323E-03 0.000E+00

     total cpu time spent up to now is       78.5 secs

     WARNING: integrated charge=    27.99998768, expected=    28.00000000

     total energy              =    -448.59957271 Ry
     estimated scf accuracy    <       0.00373867 Ry

     iteration # 22     ecut=   140.00 Ry     beta= 0.70
     Davidson diagonalization with overlap
     ethr =  1.34E-05,  avg # of iterations =  6.5

     negative rho (up, down):  1.424E-03 0.000E+00

     total cpu time spent up to now is       84.9 secs

     WARNING: integrated charge=    27.99998590, expected=    28.00000000

     total energy              =    -448.74486483 Ry
     estimated scf accuracy    <       1.78643540 Ry

     iteration # 23     ecut=   140.00 Ry     beta= 0.70
     Davidson diagonalization with overlap
     ethr =  1.34E-05,  avg # of iterations =  5.2

     negative rho (up, down):  1.485E-03 0.000E+00

     total cpu time spent up to now is       89.8 secs

     WARNING: integrated charge=    27.99999393, expected=    28.00000000

     total energy              =    -448.68204138 Ry
     estimated scf accuracy    <       4.01017764 Ry

     iteration # 24     ecut=   140.00 Ry     beta= 0.70
     Davidson diagonalization with overlap
     ethr =  1.34E-05,  avg # of iterations =  4.7

     negative rho (up, down):  9.001E-04 0.000E+00

     total cpu time spent up to now is       94.0 secs

     total energy              =    -448.42483060 Ry
     estimated scf accuracy    <       2.09377402 Ry

     iteration # 25     ecut=   140.00 Ry     beta= 0.70
     Davidson diagonalization with overlap
     ethr =  1.34E-05,  avg # of iterations =  7.6

     negative rho (up, down):  9.460E-04 0.000E+00

     total cpu time spent up to now is      101.0 secs

     total energy              =    -448.58523128 Ry
     estimated scf accuracy    <       0.07380772 Ry

     iteration # 26     ecut=   140.00 Ry     beta= 0.70
     Davidson diagonalization with overlap
     ethr =  1.34E-05,  avg # of iterations =  3.5

     negative rho (up, down):  9.596E-04 0.000E+00

     total cpu time spent up to now is      104.7 secs

     total energy              =    -448.58661117 Ry
     estimated scf accuracy    <       0.00673950 Ry

     iteration # 27     ecut=   140.00 Ry     beta= 0.70
     Davidson diagonalization with overlap
     ethr =  1.34E-05,  avg # of iterations =  1.2

     negative rho (up, down):  9.619E-04 0.000E+00

     total cpu time spent up to now is      107.9 secs

     total energy              =    -448.58665369 Ry
     estimated scf accuracy    <       0.00143327 Ry

     iteration # 28     ecut=   140.00 Ry     beta= 0.70
     Davidson diagonalization with overlap
     ethr =  5.12E-06,  avg # of iterations =  1.9

     negative rho (up, down):  8.980E-04 0.000E+00

     total cpu time spent up to now is      111.3 secs

     total energy              =    -448.58761628 Ry
     estimated scf accuracy    <       0.00039399 Ry

     iteration # 29     ecut=   140.00 Ry     beta= 0.70
     Davidson diagonalization with overlap
     ethr =  1.41E-06,  avg # of iterations =  5.2

     negative rho (up, down):  9.817E-04 0.000E+00

     total cpu time spent up to now is      116.4 secs

     total energy              =    -448.58444367 Ry
     estimated scf accuracy    <       0.02608533 Ry

     iteration # 30     ecut=   140.00 Ry     beta= 0.70
     Davidson diagonalization with overlap
     ethr =  1.41E-06,  avg # of iterations =  5.7

     negative rho (up, down):  9.653E-04 0.000E+00

     total cpu time spent up to now is      121.9 secs

     total energy              =    -448.58655329 Ry
     estimated scf accuracy    <       0.00103323 Ry

     iteration # 31     ecut=   140.00 Ry     beta= 0.70
     Davidson diagonalization with overlap
     ethr =  1.41E-06,  avg # of iterations =  3.6

     negative rho (up, down):  9.771E-04 0.000E+00

     total cpu time spent up to now is      125.7 secs

     total energy              =    -448.58668004 Ry
     estimated scf accuracy    <       0.00103381 Ry

     iteration # 32     ecut=   140.00 Ry     beta= 0.70
     Davidson diagonalization with overlap
     ethr =  1.41E-06,  avg # of iterations =  1.1

     negative rho (up, down):  9.769E-04 0.000E+00

     total cpu time spent up to now is      129.0 secs

     total energy              =    -448.58669114 Ry
     estimated scf accuracy    <       0.00021241 Ry

     iteration # 33     ecut=   140.00 Ry     beta= 0.70
     Davidson diagonalization with overlap
     ethr =  7.59E-07,  avg # of iterations =  1.0

     negative rho (up, down):  9.858E-04 0.000E+00

     total cpu time spent up to now is      132.1 secs

     total energy              =    -448.58667090 Ry
     estimated scf accuracy    <       0.00012116 Ry

     iteration # 34     ecut=   140.00 Ry     beta= 0.70
     Davidson diagonalization with overlap
     ethr =  4.33E-07,  avg # of iterations =  3.4

     negative rho (up, down):  9.848E-04 0.000E+00

     total cpu time spent up to now is      135.7 secs

     total energy              =    -448.58668659 Ry
     estimated scf accuracy    <       0.00001077 Ry

     iteration # 35     ecut=   140.00 Ry     beta= 0.70
     Davidson diagonalization with overlap
     ethr =  3.85E-08,  avg # of iterations =  2.4

     negative rho (up, down):  9.838E-04 0.000E+00

     total cpu time spent up to now is      139.3 secs

     total energy              =    -448.58668749 Ry
     estimated scf accuracy    <       0.00000240 Ry

     iteration # 36     ecut=   140.00 Ry     beta= 0.70
     Davidson diagonalization with overlap
     ethr =  8.56E-09,  avg # of iterations =  3.0

     negative rho (up, down):  9.841E-04 0.000E+00

     total cpu time spent up to now is      143.0 secs

     End of self-consistent calculation

          k = 0.0000 0.0000 0.0000 (  4945 PWs)   bands (ev):

   -69.7933 -39.7874 -35.8540 -35.8540 -35.8540 -15.8911 -15.8911 -15.8911
     9.6460  13.4200  13.4200  16.0928  16.0928  16.0928  18.3595  18.3595
    20.2283  20.2283

          k = 0.0000 0.0000 0.1000 (  4945 PWs)   bands (ev):

   -69.7930 -39.7850 -35.8568 -35.8536 -35.8536 -15.9228 -15.8892 -15.8892
     9.8492  13.5172  13.5209  16.0778  16.0778  16.1365  18.2385  18.4041
    19.9419  19.9419

          k = 0.0000 0.0000 0.2000 (  4945 PWs)   bands (ev):

   -69.7922 -39.7789 -35.8641 -35.8525 -35.8525 -16.0050 -15.8841 -15.8841
    10.4356  13.7716  13.7997  16.0452  16.0452  16.2570  17.8914  18.4942
    19.3027  19.3027

          k = 0.0000 0.0000 0.3000 (  4953 PWs)   bands (ev):

   -69.7913 -39.7713 -35.8730 -35.8512 -35.8512 -16.1054 -15.8778 -15.8778
    11.3337  14.0137  14.2362  16.0213  16.0213  16.4206  17.3711  18.4709
    18.6397  18.6397

          k = 0.0000 0.0000 0.4000 (  4973 PWs)   bands (ev):

   -69.7906 -39.7651 -35.8802 -35.8502 -35.8502 -16.1857 -15.8727 -15.8727
    12.4048  13.9838  14.7441  16.0206  16.0206  16.5683  16.7924  18.1572
    18.1572  18.1656

          k = 0.0000 0.0000-0.5000 (  4950 PWs)   bands (ev):

   -69.7903 -39.7628 -35.8829 -35.8498 -35.8498 -16.2161 -15.8707 -15.8707
    13.2889  13.5323  15.0408  16.0265  16.0265  16.4681  16.6294  17.9341
    17.9793  17.9793

          k = 0.0000 0.1000 0.1000 (  4941 PWs)   bands (ev):

   -69.7927 -39.7825 -35.8576 -35.8553 -35.8532 -15.9237 -15.9173 -15.8871
    10.0477  13.6061  13.6251  15.9837  16.0520  16.2430  18.2247  18.3711
    19.6390  19.6557

          k = 0.0000 0.1000 0.2000 (  4934 PWs)   bands (ev):

   -69.7919 -39.7760 -35.8645 -35.8554 -35.8521 -16.0022 -15.9142 -15.8818
    10.6189  13.8432  13.9038  15.8945  15.9910  16.3617  17.9671  18.4503
    19.0428  19.1071

          k = 0.0000 0.1000 0.3000 (  4950 PWs)   bands (ev):

   -69.7910 -39.7679 -35.8736 -35.8547 -35.8509 -16.1013 -15.9070 -15.8752
    11.4878  14.0825  14.3037  15.8545  15.9258  16.4176  17.5402  18.2747
    18.6438  18.6592

          k = 0.0000 0.1000 0.4000 (  4939 PWs)   bands (ev):

   -69.7903 -39.7614 -35.8810 -35.8541 -35.8498 -16.1806 -15.9011 -15.8698
    12.5117  14.0380  14.7633  15.8655  15.8744  16.3701  17.1012  17.8472
    18.4017  18.5014

          k = 0.0000 0.1000-0.5000 (  4950 PWs)   bands (ev):

   -69.7900 -39.7589 -35.8838 -35.8538 -35.8494 -16.2107 -15.8988 -15.8678
    13.3293  13.6139  15.0285  15.8051  15.9055  16.3133  16.9090  17.6596
    18.3452  18.3657

          k = 0.0000 0.2000 0.2000 (  4955 PWs)   bands (ev):

   -69.7912 -39.7684 -35.8672 -35.8612 -35.8511 -16.0018 -15.9853 -15.8758
    11.1391  13.9823  14.2222  15.6988  15.8764  16.3926  18.0557  18.4125
    18.5033  18.8418

          k = 0.0000 0.2000 0.3000 (  4957 PWs)   bands (ev):

   -69.7903 -39.7591 -35.8754 -35.8635 -35.8499 -16.0907 -15.9827 -15.8683
    11.9046  14.0937  14.6393  15.5736  15.7930  16.2292  17.8922  18.0089
    18.5742  18.7838

          k = 0.0000 0.2000 0.4000 (  4932 PWs)   bands (ev):

   -69.7895 -39.7515 -35.8831 -35.8642 -35.8489 -16.1674 -15.9748 -15.8623
    12.7499  13.9959  15.0193  15.5576  15.8240  15.9638  17.5878  17.7563
    18.7031  18.9053

          k = 0.0000 0.2000-0.5000 (  4940 PWs)   bands (ev):

   -69.7893 -39.7487 -35.8861 -35.8645 -35.8485 -16.1966 -15.9718 -15.8600
    13.3286  13.7056  15.1848  15.6149  15.7927  15.8921  17.5106  17.5811
    18.7279  18.9996

          k = 0.0000 0.3000 0.3000 (  4931 PWs)   bands (ev):

   -69.7894 -39.7482 -35.8790 -35.8730 -35.8487 -16.0845 -16.0683 -15.8599
    12.4483  13.9817  15.1548  15.3513  15.8254  15.8835  17.8790  18.1992
    18.4658  19.0844

          k = 0.0000 0.3000 0.4000 (  4929 PWs)   bands (ev):

   -69.7886 -39.7394 -35.8858 -35.8768 -35.8478 -16.1512 -16.0650 -15.8530
    12.9312  13.7823  15.2562  15.5485  15.5990  16.1674  17.7130  18.2174
    18.6640  19.4215

          k = 0.0000 0.3000-0.5000 (  4940 PWs)   bands (ev):

   -69.7884 -39.7360 -35.8890 -35.8776 -35.8474 -16.1791 -16.0610 -15.8504
    13.1665  13.6344  15.2946  15.3531  15.7443  16.5509  17.4602  18.2225
    18.8293  19.6126

          k = 0.0000 0.4000 0.4000 (  4917 PWs)   bands (ev):

   -69.7879 -39.7295 -35.8886 -35.8863 -35.8469 -16.1406 -16.1345 -15.8455
    12.9794  13.5872  15.0763  15.2294  16.3029  16.7233  17.9310  18.3840
    18.6084  19.8324

          k = 0.0000 0.4000-0.5000 (  4920 PWs)   bands (ev):

   -69.7876 -39.7257 -35.8914 -35.8883 -35.8465 -16.1650 -16.1325 -15.8426
    12.9779  13.5135  15.0587  15.0701  16.5803  17.4637  17.4839  18.5138
    18.6715  20.0429

          k = 0.0000-0.5000-0.5000 (  4972 PWs)   bands (ev):

   -69.7874 -39.7217 -35.8923 -35.8923 -35.8462 -16.1596 -16.1596 -15.8397
    12.9009  13.4621  14.9730  14.9730  17.1517  17.5619  18.0364  18.0364
    18.7888  20.1982

          k = 0.1000 0.1000 0.1000 (  4941 PWs)   bands (ev):

   -69.7924 -39.7799 -35.8572 -35.8572 -35.8542 -15.9238 -15.9153 -15.9153
    10.2422  13.7104  13.7104  15.9556  15.9556  16.3203  18.2860  18.2860
    19.1870  19.9170

          k = 0.1000 0.1000 0.2000 (  4935 PWs)   bands (ev):

   -69.7917 -39.7730 -35.8646 -35.8561 -35.8542 -15.9992 -15.9134 -15.9101
    10.8007  13.9561  13.9669  15.8331  15.8823  16.3742  18.0428  18.4109
    18.7407  19.2755

          k = 0.1000 0.1000 0.3000 (  4935 PWs)   bands (ev):

   -69.7907 -39.7645 -35.8741 -35.8548 -35.8540 -16.0974 -15.9050 -15.9037
    11.6449  14.1984  14.3275  15.7831  15.7836  16.3080  17.6865  18.2704
    18.6277  18.7092

          k = 0.1000 0.1000 0.4000 (  4932 PWs)   bands (ev):

   -69.7900 -39.7577 -35.8817 -35.8537 -35.8537 -16.1759 -15.8984 -15.8980
    12.6283  14.1268  14.7449  15.6578  15.8570  16.1949  17.3273  17.9415
    18.1746  18.8839

          k = 0.1000 0.1000-0.5000 (  4952 PWs)   bands (ev):

   -69.7897 -39.7551 -35.8846 -35.8537 -35.8533 -16.2056 -15.8964 -15.8954
    13.3931  13.7120  14.9861  15.5535  15.9739  16.1199  17.1650  17.7222
    18.0135  19.0007

          k = 0.1000 0.2000 0.2000 (  4936 PWs)   bands (ev):

   -69.7909 -39.7653 -35.8668 -35.8617 -35.8543 -15.9981 -15.9833 -15.9053
    11.3159  14.1057  14.2726  15.6540  15.7554  16.2471  18.1354  18.3884
    18.5450  19.0023

          k = 0.1000 0.2000 0.3000 (  4949 PWs)   bands (ev):

   -69.7900 -39.7557 -35.8754 -35.8635 -35.8535 -16.0871 -15.9800 -15.8974
    12.0701  14.2374  14.6415  15.5203  15.6625  16.0047  18.0056  18.1839
    18.5626  18.9021

          k = 0.1000 0.2000 0.4000 (  4936 PWs)   bands (ev):

   -69.7893 -39.7480 -35.8834 -35.8639 -35.8528 -16.1633 -15.9722 -15.8909
    12.8938  14.1375  14.9316  15.4419  15.7200  15.8749  17.7690  17.8420
    18.3737  19.3447

          k = 0.1000 0.2000-0.5000 (  4946 PWs)   bands (ev):

   -69.7890 -39.7450 -35.8865 -35.8641 -35.8525 -16.1923 -15.9691 -15.8884
    13.4484  13.8411  15.0608  15.3978  15.7411  15.9545  17.5679  17.7388
    18.2366  19.6978

          k = 0.1000 0.3000 0.3000 (  4936 PWs)   bands (ev):

   -69.7891 -39.7448 -35.8786 -35.8732 -35.8525 -16.0806 -16.0661 -15.8887
    12.6219  14.1260  15.1483  15.3088  15.6482  15.6939  17.9806  18.3482
    18.4242  19.2944

          k = 0.1000 0.3000 0.4000 (  4940 PWs)   bands (ev):

   -69.7884 -39.7360 -35.8857 -35.8765 -35.8517 -16.1479 -16.0625 -15.8817
    13.0976  13.9266  15.2063  15.3574  15.6118  16.0122  17.7490  18.2875
    18.4768  19.8122

          k = 0.1000 0.3000-0.5000 (  4946 PWs)   bands (ev):

   -69.7881 -39.7326 -35.8890 -35.8772 -35.8514 -16.1758 -16.0586 -15.8790
    13.3180  13.7842  15.2215  15.2391  15.7028  16.4130  17.4802  18.3493
    18.3643  19.9894

          k = 0.1000 0.4000 0.4000 (  4951 PWs)   bands (ev):

   -69.7876 -39.7263 -35.8881 -35.8860 -35.8508 -16.1378 -16.1323 -15.8743
    13.1440  13.7338  15.0450  15.1676  16.2304  16.5124  17.8223  18.1545
    18.7096  20.0989

          k = 0.1000 0.4000-0.5000 (  4936 PWs)   bands (ev):

   -69.7874 -39.7225 -35.8910 -35.8877 -35.8504 -16.1625 -16.1302 -15.8715
    13.1372  13.6625  15.0249  15.0328  16.4808  17.1615  17.4561  18.1173
    18.7764  20.2002

          k = 0.1000-0.5000-0.5000 (  4928 PWs)   bands (ev):

   -69.7871 -39.7187 -35.8918 -35.8918 -35.8501 -16.1574 -16.1574 -15.8686
    13.0617  13.6103  14.9477  14.9477  17.1553  17.5481  17.5481  17.5633
    18.8893  20.8272

          k = 0.2000 0.2000 0.2000 (  4920 PWs)   bands (ev):

   -69.7902 -39.7571 -35.8656 -35.8656 -35.8601 -15.9926 -15.9778 -15.9778
    11.8127  14.4122  14.4122  15.5378  15.5378  15.8691  18.3149  18.3149
    18.7893  19.2456

          k = 0.2000 0.2000 0.3000 (  4929 PWs)   bands (ev):

   -69.7893 -39.7469 -35.8755 -35.8641 -35.8622 -16.0775 -15.9745 -15.9710
    12.5214  14.6071  14.6397  15.3901  15.4140  15.5750  18.1982  18.3085
    18.6581  19.2347

          k = 0.2000 0.2000 0.4000 (  4951 PWs)   bands (ev):

   -69.7885 -39.7387 -35.8842 -35.8632 -35.8630 -16.1526 -15.9656 -15.9646
    13.2493  14.4092  14.8034  15.2479  15.4991  15.7094  17.9075  18.0665
    18.2856  19.7743

          k = 0.2000 0.2000-0.5000 (  4944 PWs)   bands (ev):

   -69.7883 -39.7356 -35.8876 -35.8635 -35.8625 -16.1811 -15.9635 -15.9608
    13.6939  14.1006  14.9094  15.1666  15.5721  15.9243  17.5809  17.9961
    18.1726  19.8782

          k = 0.2000 0.3000 0.3000 (  4937 PWs)   bands (ev):

   -69.7884 -39.7360 -35.8773 -35.8737 -35.8625 -16.0703 -16.0605 -15.9637
    13.1033  14.5060  15.1197  15.2053  15.2407  15.3431  18.0882  18.2692
    18.7581  19.4922

          k = 0.2000 0.3000 0.4000 (  4940 PWs)   bands (ev):

   -69.7876 -39.7272 -35.8853 -35.8757 -35.8619 -16.1393 -16.0558 -15.9563
    13.5561  14.2823  15.0625  15.1076  15.4350  15.7150  17.7911  18.0451
    18.7388  19.8137

          k = 0.2000 0.3000-0.5000 (  4926 PWs)   bands (ev):

   -69.7874 -39.7238 -35.8889 -35.8760 -35.8617 -16.1673 -16.0523 -15.9534
    13.7269  14.1458  15.0234  15.0762  15.5288  16.0943  17.4819  17.9556
    18.7117  19.9787

          k = 0.2000 0.4000 0.4000 (  4951 PWs)   bands (ev):

   -69.7869 -39.7178 -35.8867 -35.8853 -35.8610 -16.1303 -16.1266 -15.9491
    13.6092  14.1075  14.9712  15.0412  15.9919  15.9989  17.7267  17.7709
    19.0312  20.0638

          k = 0.2000 0.4000-0.5000 (  4932 PWs)   bands (ev):

   -69.7866 -39.7143 -35.8900 -35.8864 -35.8606 -16.1560 -16.1244 -15.9464
    13.5870  14.0460  14.9509  14.9522  16.1384  16.5223  17.3940  17.7358
    19.0945  20.2544

          k = 0.2000-0.5000-0.5000 (  4948 PWs)   bands (ev):

   -69.7864 -39.7106 -35.8904 -35.8904 -35.8602 -16.1517 -16.1517 -15.9437
    13.5187  13.9972  14.8908  14.8908  16.7341  16.7341  17.1646  17.5502
    19.1970  20.4927

          k = 0.3000 0.3000 0.3000 (  4944 PWs)   bands (ev):

   -69.7875 -39.7251 -35.8757 -35.8757 -35.8735 -16.0593 -16.0535 -16.0535
    13.7367  14.7657  15.0488  15.0488  15.1030  15.1030  18.0260  18.0260
    19.2929  19.2929

          k = 0.3000 0.3000 0.4000 (  4939 PWs)   bands (ev):

   -69.7868 -39.7163 -35.8850 -35.8747 -35.8744 -16.1288 -16.0479 -16.0469
    14.1171  14.5209  14.9702  15.0308  15.1746  15.5318  17.6990  17.8346
    19.2294  19.8240

          k = 0.3000 0.3000-0.5000 (  4920 PWs)   bands (ev):

   -69.7865 -39.7129 -35.8887 -35.8749 -35.8739 -16.1566 -16.0457 -16.0430
    14.1559  14.4317  14.9417  14.9989  15.3307  15.8537  17.4094  17.7679
    19.2161  20.0552

          k = 0.3000 0.4000 0.4000 (  4909 PWs)   bands (ev):

   -69.7860 -39.7074 -35.8850 -35.8845 -35.8736 -16.1211 -16.1196 -16.0406
    14.2601  14.5051  14.9052  15.0153  15.4420  15.6438  17.5266  17.6283
    19.5478  20.0865

          k = 0.3000 0.4000-0.5000 (  4916 PWs)   bands (ev):

   -69.7858 -39.7040 -35.8887 -35.8847 -35.8732 -16.1480 -16.1171 -16.0379
    14.2176  14.4738  14.9113  14.9184  15.6440  15.9188  17.3088  17.5738
    19.6030  20.3061

          k = 0.3000-0.5000-0.5000 (  4904 PWs)   bands (ev):

   -69.7855 -39.7006 -35.8886 -35.8886 -35.8727 -16.1447 -16.1447 -16.0355
    14.1848  14.4679  14.8507  14.8507  16.0102  16.0102  17.1761  17.4766
    19.7015  20.5169

          k = 0.4000 0.4000 0.4000 (  4902 PWs)   bands (ev):

   -69.7853 -39.6989 -35.8838 -35.8837 -35.8837 -16.1139 -16.1139 -16.1134
    14.5623  14.9031  14.9031  15.0844  15.2946  15.2946  17.4215  17.4215
    20.1164  20.1164

          k = 0.4000 0.4000-0.5000 (  4888 PWs)   bands (ev):

   -69.7850 -39.6957 -35.8876 -35.8835 -35.8832 -16.1415 -16.1117 -16.1107
    14.6753  14.7091  14.9669  15.0974  15.2619  15.5401  17.2562  17.3940
    20.1289  20.3871

          k = 0.4000-0.5000-0.5000 (  4888 PWs)   bands (ev):

   -69.7848 -39.6925 -35.8872 -35.8872 -35.8828 -16.1390 -16.1390 -16.1090
    14.8353  14.8721  14.8829  14.8829  15.4712  15.4712  17.1854  17.3118
    20.2689  20.5365

          k =-0.5000-0.5000-0.5000 (  4896 PWs)   bands (ev):

   -69.7845 -39.6894 -35.8867 -35.8867 -35.8867 -16.1369 -16.1369 -16.1369
    14.9709  14.9709  14.9709  15.2064  15.2064  15.2064  17.1890  17.1890
    20.5441  20.5441

     the Fermi energy is    17.1415 ev

!    total energy              =    -448.58668780 Ry
     estimated scf accuracy    <          6.4E-09 Ry
     smearing contrib. (-TS)   =      -0.00009923 Ry
     internal energy E=F+TS    =    -448.58658857 Ry

     The total energy is F=E-TS. E is the sum of the following terms:
     one-electron contribution =    -155.33108089 Ry
     hartree contribution      =      92.98516442 Ry
     xc contribution           =     -52.83942040 Ry
     ewald contribution        =    -257.24822056 Ry
     one-center paw contrib.   =     -76.15303113 Ry

     convergence has been achieved in  36 iterations

     negative rho (up, down):  9.841E-04 0.000E+00

     Forces acting on atoms (cartesian axes, Ry/au):

     atom    1 type  1   force =     0.00000000    0.00000000    0.00000000
     atom    2 type  2   force =     0.00000000    0.00000000    0.00000000

     Total force =     0.000000     Total SCF correction =     0.000000


     Computing stress (Cartesian axis) and pressure


     negative rho (up, down):  9.841E-04 0.000E+00
          total   stress  (Ry/bohr**3)                   (kbar)     P=      -28.08
  -0.00019086   0.00000000   0.00000000          -28.08        0.00        0.00
   0.00000000  -0.00019086   0.00000000            0.00      -28.08        0.00
   0.00000000   0.00000000  -0.00019086            0.00        0.00      -28.08


     Writing all to output data dir ./out/TiFe2.save/ :
     XML data file, charge density, pseudopotentials, collected wavefunctions

     init_run     :      1.75s CPU      1.93s WALL (       1 calls)
     electrons    :    127.93s CPU    140.85s WALL (       1 calls)
     forces       :      0.55s CPU      0.64s WALL (       1 calls)
     stress       :      2.56s CPU      2.82s WALL (       1 calls)

     Called by init_run:
     wfcinit      :      1.18s CPU      1.26s WALL (       1 calls)
     potinit      :      0.17s CPU      0.20s WALL (       1 calls)
     hinit0       :      0.18s CPU      0.18s WALL (       1 calls)

     Called by electrons:
     c_bands      :     97.90s CPU    104.07s WALL (      36 calls)
     sum_band     :     18.85s CPU     22.48s WALL (      36 calls)
     v_of_rho     :      1.93s CPU      2.10s WALL (      37 calls)
     newd         :      5.90s CPU      8.53s WALL (      37 calls)
     PAW_pot      :      3.08s CPU      3.42s WALL (      37 calls)
     mix_rho      :      0.33s CPU      0.36s WALL (      36 calls)

     Called by c_bands:
     init_us_2    :      1.88s CPU      1.97s WALL (    4200 calls)
     cegterg      :     93.94s CPU     99.95s WALL (    2016 calls)

     Called by *egterg:
     cdiaghg      :      2.98s CPU      3.10s WALL (    7890 calls)
     h_psi        :     70.07s CPU     75.38s WALL (    7946 calls)
     s_psi        :      3.58s CPU      3.70s WALL (    7946 calls)
     g_psi        :      0.18s CPU      0.18s WALL (    5874 calls)

     Called by h_psi:
     h_psi:calbec :      6.45s CPU      6.92s WALL (    7946 calls)
     vloc_psi     :     59.47s CPU     64.15s WALL (    7946 calls)
     add_vuspsi   :      3.65s CPU      3.79s WALL (    7946 calls)

     General routines
     calbec       :      9.29s CPU      9.92s WALL (   10914 calls)
     fft          :      1.03s CPU      1.17s WALL (     504 calls)
     ffts         :      0.03s CPU      0.04s WALL (      73 calls)
     fftw         :     50.32s CPU     54.46s WALL (  223384 calls)
     interpolate  :      0.12s CPU      0.14s WALL (      37 calls)

     Parallel routines

     PWSCF        :   2m13.04s CPU   2m26.58s WALL


   This run was terminated on:  21:32:56  31Oct2025            

=------------------------------------------------------------------------------=
   JOB DONE.
=------------------------------------------------------------------------------=
