
     Program PWSCF v.7.4 starts on 19Nov2025 at 15:25:27 

     This program is part of the open-source Quantum ESPRESSO suite
     for quantum simulation of materials; please cite
         "P. Giannozzi et al., J. Phys.:Condens. Matter 21 395502 (2009);
         "P. Giannozzi et al., J. Phys.:Condens. Matter 29 465901 (2017);
         "P. Giannozzi et al., J. Chem. Phys. 152 154105 (2020);
          URL http://www.quantum-espresso.org", 
     in publications or presentations arising from this work. More details at
     http://www.quantum-espresso.org/quote

     Parallel version (MPI & OpenMP), running on       8 processor cores
     Number of MPI processes:                 8
     Threads/MPI process:                     1

     MPI processes distributed on     1 nodes
     209066 MiB available memory on the printing compute node when the environment starts

     Reading input from TiFe.scf.in

     Current dimensions of program PWSCF are:
     Max number of different atomic species (ntypx) = 10
     Max number of k-points (npk) =  40000
     Max angular momentum in pseudopotentials (lmaxx) =  4
     file Fe.pbe-spn-kjpaw_psl.0.2.1.UPF: wavefunction(s)  3D renormalized

     IMPORTANT: XC functional enforced from input :
     Exchange-correlation= PBE
                           (   1   4   3   4   0   0   0)
     Any further DFT definition will be discarded
     Please, verify this is what you really want

     Message from routine setup:
     using ibrav=0 with symmetry is DISCOURAGED, use correct ibrav instead

     R & G space division:  proc/nbgrp/npool/nimage =       8
     Subspace diagonalization in iterative solution of the eigenvalue problem:
     a serial algorithm will be used


     Parallelization info
     --------------------
     sticks:   dense  smooth     PW     G-vecs:    dense   smooth      PW
     Min         347     172     50                13774     4875     752
     Max         349     174     51                13775     4876     755
     Sum        2785    1389    401               110195    39007    6031

     Using Slab Decomposition



     bravais-lattice index     =            0
     lattice parameter (alat)  =       5.5533  a.u.
     unit-cell volume          =     174.0873 (a.u.)^3
     number of atoms/cell      =            2
     number of atomic types    =            2
     number of electrons       =        28.00
     number of Kohn-Sham states=           18
     kinetic-energy cutoff     =     140.0000  Ry
     charge density cutoff     =    1120.0000  Ry
     scf convergence threshold =      1.0E-08
     mixing beta               =       0.7000
     number of iterations used =            8  plain     mixing
     Exchange-correlation= PBE
                           (   1   4   3   4   0   0   0)

     celldm(1)=   5.553301  celldm(2)=   0.000000  celldm(3)=   0.000000
     celldm(4)=   0.000000  celldm(5)=   0.000000  celldm(6)=   0.000000

     crystal axes: (cart. coord. in units of alat)
               a(1) = (   1.005475  -0.000002  -0.000002 )  
               a(2) = (  -0.000002   1.005475  -0.000002 )  
               a(3) = (  -0.000002  -0.000002   1.005475 )  

     reciprocal axes: (cart. coord. in units 2 pi/alat)
               b(1) = (  0.994555  0.000002  0.000002 )  
               b(2) = (  0.000002  0.994555  0.000002 )  
               b(3) = (  0.000002  0.000002  0.994555 )  


     PseudoPot. # 1 for Ti read from file:
     /vscmnt/antwerpen_storage_home/_user_antwerpen/211/vsc21140/pseudos/ti_pbe_v1.4.uspp.F.UPF
     MD5 check sum: 88a00a6731bd790ddea75d31a80cb452
     Pseudo is Ultrasoft + core correction, Zval = 12.0
     Generated by new atomic code, or converted to UPF format
     Using radial grid of  851 points,  6 beta functions with: 
                l(1) =   0
                l(2) =   0
                l(3) =   1
                l(4) =   1
                l(5) =   2
                l(6) =   2
     Q(r) pseudized with  6 coefficients,  rinner =    1.000   1.000   1.000
                                                       1.000   1.000

     PseudoPot. # 2 for Fe read from file:
     /vscmnt/antwerpen_storage_home/_user_antwerpen/211/vsc21140/pseudos/Fe.pbe-spn-kjpaw_psl.0.2.1.UPF
     MD5 check sum: e86618425769142926afa95317d90200
     Pseudo is Projector augmented-wave + core cor, Zval = 16.0
     Generated using "atomic" code by A. Dal Corso  v.5.0.99 svn rev. 10869
     Shape of augmentation charge: PSQ
     Using radial grid of 1191 points,  6 beta functions with: 
                l(1) =   0
                l(2) =   0
                l(3) =   1
                l(4) =   1
                l(5) =   2
                l(6) =   2
     Q(r) pseudized with 0 coefficients 


     atomic species   valence    mass     pseudopotential
     Ti               12.00    47.86700     Ti( 1.00)
     Fe               16.00    55.84500     Fe( 1.00)

     Starting magnetic structure 
     atomic species   magnetization
     Ti              0.000
     Fe              0.500

      6 Sym. Ops. (no inversion) found



   Cartesian axes

     site n.     atom                  positions (alat units)
         1        Fe     tau(   1) = (   0.5048528   0.5048528   0.5048528  )
         2        Ti     tau(   2) = (   0.0006434   0.0006434   0.0006434  )

     number of k points=   146  Marzari-Vanderbilt smearing, width (Ry)=  0.0050

     Number of k-points >= 100: set verbosity='high' to print them.

     Dense  grid:   110195 G-vectors     FFT dimensions: (  60,  60,  60)

     Smooth grid:    39007 G-vectors     FFT dimensions: (  45,  45,  45)

     Estimated max dynamical RAM per process >     110.55 MB

     Estimated total dynamical RAM >     884.43 MB

     Check: negative core charge=   -0.000005
     Generating pointlists ...
     new r_m :   0.3581 (alat units)  1.9888 (a.u.) for type    1
     new r_m :   0.3581 (alat units)  1.9888 (a.u.) for type    2

     Initial potential from superposition of free atoms

     starting charge      26.9995, renormalised to      28.0000

     negative rho (up, down):  7.020E-04 7.395E-04
     Starting wfcs are   23 randomized atomic wfcs
     Checking if some PAW data can be deallocated... 

     total cpu time spent up to now is        3.5 secs

     per-process dynamical memory:   174.8 Mb

     Self-consistent Calculation

     iteration #  1     ecut=   140.00 Ry     beta= 0.70
     Davidson diagonalization with overlap
     ethr =  1.00E-02,  avg # of iterations =  2.4

     negative rho (up, down):  2.898E-05 1.270E-04

     total cpu time spent up to now is        9.3 secs

     total energy              =    -438.17692179 Ry
     estimated scf accuracy    <      14.76758369 Ry

     total magnetization       =     1.13 Bohr mag/cell
     absolute magnetization    =     2.78 Bohr mag/cell

     iteration #  2     ecut=   140.00 Ry     beta= 0.70
     Davidson diagonalization with overlap
     ethr =  1.00E-02,  avg # of iterations =  5.9

     negative rho (up, down):  1.439E-04 1.102E-05

     total cpu time spent up to now is       18.4 secs

     total energy              =    -448.01727979 Ry
     estimated scf accuracy    <      54.32832106 Ry

     total magnetization       =     0.05 Bohr mag/cell
     absolute magnetization    =     0.19 Bohr mag/cell

     iteration #  3     ecut=   140.00 Ry     beta= 0.70
     Davidson diagonalization with overlap
     ethr =  1.00E-02,  avg # of iterations =  2.9

     negative rho (up, down):  4.990E-04 1.692E-04

     total cpu time spent up to now is       24.9 secs

     total energy              =    -446.60447171 Ry
     estimated scf accuracy    <      13.19197955 Ry

     total magnetization       =     0.16 Bohr mag/cell
     absolute magnetization    =     0.20 Bohr mag/cell

     iteration #  4     ecut=   140.00 Ry     beta= 0.70
     Davidson diagonalization with overlap
     ethr =  1.00E-02,  avg # of iterations =  4.3

     negative rho (up, down):  4.448E-04 1.017E-04

     total cpu time spent up to now is       31.5 secs

     total energy              =    -447.10907253 Ry
     estimated scf accuracy    <       6.89398466 Ry

     total magnetization       =     0.27 Bohr mag/cell
     absolute magnetization    =     1.67 Bohr mag/cell

     iteration #  5     ecut=   140.00 Ry     beta= 0.70
     Davidson diagonalization with overlap
     ethr =  1.00E-02,  avg # of iterations =  3.4

     negative rho (up, down):  6.048E-04 2.054E-04

     total cpu time spent up to now is       37.1 secs

     total energy              =    -448.43400034 Ry
     estimated scf accuracy    <       6.66910353 Ry

     total magnetization       =     0.11 Bohr mag/cell
     absolute magnetization    =     0.20 Bohr mag/cell

     iteration #  6     ecut=   140.00 Ry     beta= 0.70
     Davidson diagonalization with overlap
     ethr =  1.00E-02,  avg # of iterations =  1.2

     negative rho (up, down):  6.447E-04 2.397E-04

     total cpu time spent up to now is       41.6 secs

     total energy              =    -448.57319563 Ry
     estimated scf accuracy    <       1.06746415 Ry

     total magnetization       =     0.04 Bohr mag/cell
     absolute magnetization    =     0.47 Bohr mag/cell

     iteration #  7     ecut=   140.00 Ry     beta= 0.70
     Davidson diagonalization with overlap
     ethr =  3.81E-03,  avg # of iterations =  1.4

     negative rho (up, down):  6.383E-04 2.366E-04

     total cpu time spent up to now is       46.3 secs

     total energy              =    -448.59647056 Ry
     estimated scf accuracy    <       0.40366485 Ry

     total magnetization       =     0.05 Bohr mag/cell
     absolute magnetization    =     0.55 Bohr mag/cell

     iteration #  8     ecut=   140.00 Ry     beta= 0.70
     Davidson diagonalization with overlap
     ethr =  1.44E-03,  avg # of iterations =  1.3

     negative rho (up, down):  6.137E-04 2.676E-04

     total cpu time spent up to now is       50.8 secs

     total energy              =    -448.63436043 Ry
     estimated scf accuracy    <       0.38169625 Ry

     total magnetization       =     0.05 Bohr mag/cell
     absolute magnetization    =     0.55 Bohr mag/cell

     iteration #  9     ecut=   140.00 Ry     beta= 0.70
     Davidson diagonalization with overlap
     ethr =  1.36E-03,  avg # of iterations =  1.0

     negative rho (up, down):  6.977E-04 4.577E-04

     total cpu time spent up to now is       55.4 secs

     total energy              =    -448.46474034 Ry
     estimated scf accuracy    <       0.99002362 Ry

     total magnetization       =     0.05 Bohr mag/cell
     absolute magnetization    =     0.48 Bohr mag/cell

     iteration # 10     ecut=   140.00 Ry     beta= 0.70
     Davidson diagonalization with overlap
     ethr =  1.36E-03,  avg # of iterations =  3.5

     negative rho (up, down):  6.374E-04 3.867E-04

     total cpu time spent up to now is       60.6 secs

     total energy              =    -448.56163873 Ry
     estimated scf accuracy    <       0.56747146 Ry

     total magnetization       =     0.04 Bohr mag/cell
     absolute magnetization    =     0.59 Bohr mag/cell

     iteration # 11     ecut=   140.00 Ry     beta= 0.70
     Davidson diagonalization with overlap
     ethr =  1.36E-03,  avg # of iterations =  1.1

     negative rho (up, down):  6.266E-04 3.988E-04

     total cpu time spent up to now is       65.1 secs

     total energy              =    -448.58398588 Ry
     estimated scf accuracy    <       0.01432945 Ry

     total magnetization       =     0.01 Bohr mag/cell
     absolute magnetization    =     0.54 Bohr mag/cell

     iteration # 12     ecut=   140.00 Ry     beta= 0.70
     Davidson diagonalization with overlap
     ethr =  5.12E-05,  avg # of iterations =  4.4

     negative rho (up, down):  6.222E-04 4.040E-04

     total cpu time spent up to now is       70.6 secs

     total energy              =    -448.58635295 Ry
     estimated scf accuracy    <       0.00136748 Ry

     total magnetization       =     0.01 Bohr mag/cell
     absolute magnetization    =     0.47 Bohr mag/cell

     iteration # 13     ecut=   140.00 Ry     beta= 0.70
     Davidson diagonalization with overlap
     ethr =  4.88E-06,  avg # of iterations =  4.3

     negative rho (up, down):  6.259E-04 4.038E-04

     total cpu time spent up to now is       76.3 secs

     total energy              =    -448.58654253 Ry
     estimated scf accuracy    <       0.00108664 Ry

     total magnetization       =     0.01 Bohr mag/cell
     absolute magnetization    =     0.46 Bohr mag/cell

     iteration # 14     ecut=   140.00 Ry     beta= 0.70
     Davidson diagonalization with overlap
     ethr =  3.88E-06,  avg # of iterations =  1.0

     negative rho (up, down):  6.147E-04 3.902E-04

     total cpu time spent up to now is       80.9 secs

     total energy              =    -448.58610792 Ry
     estimated scf accuracy    <       0.00198078 Ry

     total magnetization       =     0.01 Bohr mag/cell
     absolute magnetization    =     0.47 Bohr mag/cell

     iteration # 15     ecut=   140.00 Ry     beta= 0.70
     Davidson diagonalization with overlap
     ethr =  3.88E-06,  avg # of iterations =  3.9

     negative rho (up, down):  5.931E-04 2.981E-04

     total cpu time spent up to now is       86.4 secs

     total energy              =    -448.58978373 Ry
     estimated scf accuracy    <       0.00955285 Ry

     total magnetization       =     0.01 Bohr mag/cell
     absolute magnetization    =     0.46 Bohr mag/cell

     iteration # 16     ecut=   140.00 Ry     beta= 0.70
     Davidson diagonalization with overlap
     ethr =  3.88E-06,  avg # of iterations =  5.7

     negative rho (up, down):  5.887E-04 4.078E-04

     total cpu time spent up to now is       94.6 secs

     total energy              =    -448.57644695 Ry
     estimated scf accuracy    <       0.17666213 Ry

     total magnetization       =     0.04 Bohr mag/cell
     absolute magnetization    =     0.57 Bohr mag/cell

     iteration # 17     ecut=   140.00 Ry     beta= 0.70
     Davidson diagonalization with overlap
     ethr =  3.88E-06,  avg # of iterations =  5.6

     negative rho (up, down):  5.802E-04 3.898E-04

     total cpu time spent up to now is      102.8 secs

     total energy              =    -448.58658939 Ry
     estimated scf accuracy    <       0.00030068 Ry

     total magnetization       =     0.00 Bohr mag/cell
     absolute magnetization    =     0.36 Bohr mag/cell

     iteration # 18     ecut=   140.00 Ry     beta= 0.70
     Davidson diagonalization with overlap
     ethr =  1.07E-06,  avg # of iterations =  4.1

     negative rho (up, down):  5.621E-04 3.883E-04

     total cpu time spent up to now is      109.0 secs

     total energy              =    -448.58713484 Ry
     estimated scf accuracy    <       0.00320741 Ry

     total magnetization       =    -0.00 Bohr mag/cell
     absolute magnetization    =     0.33 Bohr mag/cell

     iteration # 19     ecut=   140.00 Ry     beta= 0.70
     Davidson diagonalization with overlap
     ethr =  1.07E-06,  avg # of iterations =  2.8

     negative rho (up, down):  5.507E-04 4.171E-04

     total cpu time spent up to now is      114.1 secs

     total energy              =    -448.58692490 Ry
     estimated scf accuracy    <       0.00661251 Ry

     total magnetization       =    -0.00 Bohr mag/cell
     absolute magnetization    =     0.27 Bohr mag/cell

     iteration # 20     ecut=   140.00 Ry     beta= 0.70
     Davidson diagonalization with overlap
     ethr =  1.07E-06,  avg # of iterations =  2.7

     negative rho (up, down):  5.190E-04 4.653E-04

     total cpu time spent up to now is      119.4 secs

     total energy              =    -448.58654956 Ry
     estimated scf accuracy    <       0.00281692 Ry

     total magnetization       =    -0.00 Bohr mag/cell
     absolute magnetization    =     0.21 Bohr mag/cell

     iteration # 21     ecut=   140.00 Ry     beta= 0.70
     Davidson diagonalization with overlap
     ethr =  1.07E-06,  avg # of iterations =  4.1

     negative rho (up, down):  4.917E-04 4.809E-04

     total cpu time spent up to now is      125.5 secs

     total energy              =    -448.58697849 Ry
     estimated scf accuracy    <       0.00037326 Ry

     total magnetization       =    -0.00 Bohr mag/cell
     absolute magnetization    =     0.08 Bohr mag/cell

     iteration # 22     ecut=   140.00 Ry     beta= 0.70
     Davidson diagonalization with overlap
     ethr =  1.07E-06,  avg # of iterations =  2.2

     negative rho (up, down):  4.901E-04 4.799E-04

     total cpu time spent up to now is      130.5 secs

     total energy              =    -448.58703086 Ry
     estimated scf accuracy    <       0.00004151 Ry

     total magnetization       =    -0.00 Bohr mag/cell
     absolute magnetization    =     0.02 Bohr mag/cell

     iteration # 23     ecut=   140.00 Ry     beta= 0.70
     Davidson diagonalization with overlap
     ethr =  1.48E-07,  avg # of iterations =  2.3

     negative rho (up, down):  4.890E-04 4.819E-04

     total cpu time spent up to now is      135.4 secs

     total energy              =    -448.58703551 Ry
     estimated scf accuracy    <       0.00000089 Ry

     total magnetization       =     0.00 Bohr mag/cell
     absolute magnetization    =     0.02 Bohr mag/cell

     iteration # 24     ecut=   140.00 Ry     beta= 0.70
     Davidson diagonalization with overlap
     ethr =  3.18E-09,  avg # of iterations =  4.8

     negative rho (up, down):  4.866E-04 4.842E-04

     total cpu time spent up to now is      142.8 secs

     total energy              =    -448.58703674 Ry
     estimated scf accuracy    <       0.00000031 Ry

     total magnetization       =     0.00 Bohr mag/cell
     absolute magnetization    =     0.01 Bohr mag/cell

     iteration # 25     ecut=   140.00 Ry     beta= 0.70
     Davidson diagonalization with overlap
     ethr =  1.11E-09,  avg # of iterations =  4.7

     negative rho (up, down):  4.854E-04 4.855E-04

     total cpu time spent up to now is      149.2 secs

     total energy              =    -448.58703751 Ry
     estimated scf accuracy    <       0.00000003 Ry

     total magnetization       =     0.00 Bohr mag/cell
     absolute magnetization    =     0.01 Bohr mag/cell

     iteration # 26     ecut=   140.00 Ry     beta= 0.70
     Davidson diagonalization with overlap
     ethr =  1.19E-10,  avg # of iterations =  5.3

     negative rho (up, down):  4.855E-04 4.854E-04

     total cpu time spent up to now is      157.2 secs

     total energy              =    -448.58703789 Ry
     estimated scf accuracy    <       0.00000001 Ry

     total magnetization       =    -0.00 Bohr mag/cell
     absolute magnetization    =     0.00 Bohr mag/cell

     iteration # 27     ecut=   140.00 Ry     beta= 0.70
     Davidson diagonalization with overlap
     ethr =  4.09E-11,  avg # of iterations =  2.4

     negative rho (up, down):  4.855E-04 4.854E-04

     Magnetic moment per site  (integrated on atomic sphere of radius R)
     atom   1 (R=0.358)  charge= 14.7073  magn=  0.0000
     atom   2 (R=0.358)  charge=  9.9920  magn= -0.0000

     total cpu time spent up to now is      162.3 secs

     End of self-consistent calculation

     Number of k-points >= 100: set verbosity='high' to print the bands.

     the Fermi energy is    17.2497 ev

!    total energy              =    -448.58703789 Ry
     estimated scf accuracy    <          4.7E-10 Ry
     smearing contrib. (-TS)   =       0.00006543 Ry
     internal energy E=F+TS    =    -448.58710332 Ry

     The total energy is F=E-TS. E is the sum of the following terms:
     one-electron contribution =    -153.52752601 Ry
     hartree contribution      =      92.35777913 Ry
     xc contribution           =     -52.85879789 Ry
     ewald contribution        =    -258.40506119 Ry
     one-center paw contrib.   =     -76.15349736 Ry

     total magnetization       =    -0.00 Bohr mag/cell
     absolute magnetization    =     0.00 Bohr mag/cell

     convergence has been achieved in  27 iterations

     negative rho (up, down):  4.855E-04 4.854E-04

     Forces acting on atoms (cartesian axes, Ry/au):

     atom    1 type  2   force =    -0.00090859   -0.00090859   -0.00090859
     atom    2 type  1   force =     0.00090859    0.00090859    0.00090859

     Total force =     0.002226     Total SCF correction =     0.000014


     Computing stress (Cartesian axis) and pressure


     negative rho (up, down):  4.855E-04 4.854E-04
          total   stress  (Ry/bohr**3)                   (kbar)     P=       -0.04
  -0.00000030   0.00000011   0.00000011           -0.04        0.02        0.02
   0.00000011  -0.00000030   0.00000011            0.02       -0.04        0.02
   0.00000011   0.00000011  -0.00000030            0.02        0.02       -0.04


     Writing all to output data dir ./outputs_scf/TiFe.save/ :
     XML data file, charge density, pseudopotentials, collected wavefunctions

     init_run     :      3.21s CPU      3.31s WALL (       1 calls)
     electrons    :    155.33s CPU    158.86s WALL (       1 calls)
     forces       :      0.41s CPU      0.43s WALL (       1 calls)
     stress       :      1.82s CPU      1.85s WALL (       1 calls)

     Called by init_run:
     wfcinit      :      2.20s CPU      2.26s WALL (       1 calls)
     potinit      :      0.26s CPU      0.28s WALL (       1 calls)
     hinit0       :      0.48s CPU      0.50s WALL (       1 calls)

     Called by electrons:
     c_bands      :    125.73s CPU    128.04s WALL (      27 calls)
     sum_band     :     23.53s CPU     24.09s WALL (      27 calls)
     v_of_rho     :      0.68s CPU      0.74s WALL (      28 calls)
     newd         :      2.18s CPU      2.41s WALL (      28 calls)
     PAW_pot      :      3.26s CPU      3.53s WALL (      28 calls)
     mix_rho      :      0.10s CPU      0.11s WALL (      27 calls)

     Called by c_bands:
     init_us_2    :      2.88s CPU      2.94s WALL (   16644 calls)
     cegterg      :    120.44s CPU    122.63s WALL (    7884 calls)

     Called by *egterg:
     cdiaghg      :      9.93s CPU     10.12s WALL (   33802 calls)
     h_psi        :     97.49s CPU     99.30s WALL (   34094 calls)
     s_psi        :      1.98s CPU      2.02s WALL (   34094 calls)
     g_psi        :      0.47s CPU      0.48s WALL (   25918 calls)

     Called by h_psi:
     h_psi:calbec :      3.50s CPU      3.57s WALL (   34094 calls)
     vloc_psi     :     91.62s CPU     93.32s WALL (   34094 calls)
     add_vuspsi   :      2.02s CPU      2.07s WALL (   34094 calls)

     General routines
     calbec       :      5.07s CPU      5.17s WALL (   46942 calls)
     fft          :      0.70s CPU      0.77s WALL (     738 calls)
     ffts         :      0.12s CPU      0.13s WALL (     110 calls)
     fftw         :     95.68s CPU     97.42s WALL (  903388 calls)
     interpolate  :      0.14s CPU      0.15s WALL (      56 calls)

     Parallel routines

     PWSCF        :    161.46s CPU    180.64s WALL


   This run was terminated on:  15:28:28  19Nov2025            

=------------------------------------------------------------------------------=
   JOB DONE.
=------------------------------------------------------------------------------=
