
     Program PWSCF v.7.4 starts on 27Oct2025 at 22:19:49 

     This program is part of the open-source Quantum ESPRESSO suite
     for quantum simulation of materials; please cite
         "P. Giannozzi et al., J. Phys.:Condens. Matter 21 395502 (2009);
         "P. Giannozzi et al., J. Phys.:Condens. Matter 29 465901 (2017);
         "P. Giannozzi et al., J. Chem. Phys. 152 154105 (2020);
          URL http://www.quantum-espresso.org", 
     in publications or presentations arising from this work. More details at
     http://www.quantum-espresso.org/quote

     Parallel version (MPI & OpenMP), running on       8 processor cores
     Number of MPI processes:                 8
     Threads/MPI process:                     1

     MPI processes distributed on     1 nodes
     218150 MiB available memory on the printing compute node when the environment starts

     Reading input from TiFe_kmesh_convergence/TiFe2_k999.in

     Current dimensions of program PWSCF are:
     Max number of different atomic species (ntypx) = 10
     Max number of k-points (npk) =  40000
     Max angular momentum in pseudopotentials (lmaxx) =  4
     file Fe.pbe-spn-kjpaw_psl.0.2.1.UPF: wavefunction(s)  3D renormalized

     IMPORTANT: XC functional enforced from input :
     Exchange-correlation= PBE
                           (   1   4   3   4   0   0   0)
     Any further DFT definition will be discarded
     Please, verify this is what you really want

     Message from routine setup:
     using ibrav=0 with symmetry is DISCOURAGED, use correct ibrav instead

     R & G space division:  proc/nbgrp/npool/nimage =       8
     Subspace diagonalization in iterative solution of the eigenvalue problem:
     a serial algorithm will be used


     Parallelization info
     --------------------
     sticks:   dense  smooth     PW     G-vecs:    dense   smooth      PW
     Min         239      77     23                 7884     1467     250
     Max         242      78     25                 7885     1470     252
     Sum        1917     621    193                63077    11753    2007

     Using Slab Decomposition



     bravais-lattice index     =            0
     lattice parameter (alat)  =       5.5533  a.u.
     unit-cell volume          =     171.2590 (a.u.)^3
     number of atoms/cell      =            2
     number of atomic types    =            2
     number of electrons       =        28.00
     number of Kohn-Sham states=           18
     kinetic-energy cutoff     =      64.0000  Ry
     charge density cutoff     =     782.0000  Ry
     scf convergence threshold =      1.0E-08
     mixing beta               =       0.7000
     number of iterations used =            8  plain     mixing
     Exchange-correlation= PBE
                           (   1   4   3   4   0   0   0)

     celldm(1)=   5.553300  celldm(2)=   0.000000  celldm(3)=   0.000000
     celldm(4)=   0.000000  celldm(5)=   0.000000  celldm(6)=   0.000000

     crystal axes: (cart. coord. in units of alat)
               a(1) = (   1.000000   0.000000   0.000000 )  
               a(2) = (   0.000000   1.000000   0.000000 )  
               a(3) = (   0.000000   0.000000   1.000000 )  

     reciprocal axes: (cart. coord. in units 2 pi/alat)
               b(1) = (  1.000000  0.000000  0.000000 )  
               b(2) = (  0.000000  1.000000  0.000000 )  
               b(3) = (  0.000000  0.000000  1.000000 )  


     PseudoPot. # 1 for Fe read from file:
     ./Fe.pbe-spn-kjpaw_psl.0.2.1.UPF
     MD5 check sum: e86618425769142926afa95317d90200
     Pseudo is Projector augmented-wave + core cor, Zval = 16.0
     Generated using "atomic" code by A. Dal Corso  v.5.0.99 svn rev. 10869
     Shape of augmentation charge: PSQ
     Using radial grid of 1191 points,  6 beta functions with: 
                l(1) =   0
                l(2) =   0
                l(3) =   1
                l(4) =   1
                l(5) =   2
                l(6) =   2
     Q(r) pseudized with 0 coefficients 


     PseudoPot. # 2 for Ti read from file:
     ./Ti_pbe_v1.4.uspp.F.UPF
     MD5 check sum: 88a00a6731bd790ddea75d31a80cb452
     Pseudo is Ultrasoft + core correction, Zval = 12.0
     Generated by new atomic code, or converted to UPF format
     Using radial grid of  851 points,  6 beta functions with: 
                l(1) =   0
                l(2) =   0
                l(3) =   1
                l(4) =   1
                l(5) =   2
                l(6) =   2
     Q(r) pseudized with  6 coefficients,  rinner =    1.000   1.000   1.000
                                                       1.000   1.000

     atomic species   valence    mass     pseudopotential
     Fe               16.00    55.84500     Fe( 1.00)
     Ti               12.00    47.86700     Ti( 1.00)

     48 Sym. Ops., with inversion, found



   Cartesian axes

     site n.     atom                  positions (alat units)
         1        Fe     tau(   1) = (   0.5000000   0.5000000   0.5000000  )
         2        Ti     tau(   2) = (   0.0000000   0.0000000   0.0000000  )

     number of k points=    35  Marzari-Vanderbilt smearing, width (Ry)=  0.0050
                       cart. coord. in units 2pi/alat
        k(    1) = (   0.0000000   0.0000000   0.0000000), wk =   0.0027435
        k(    2) = (   0.0000000   0.0000000   0.1111111), wk =   0.0164609
        k(    3) = (   0.0000000   0.0000000   0.2222222), wk =   0.0164609
        k(    4) = (   0.0000000   0.0000000   0.3333333), wk =   0.0164609
        k(    5) = (   0.0000000   0.0000000   0.4444444), wk =   0.0164609
        k(    6) = (   0.0000000   0.1111111   0.1111111), wk =   0.0329218
        k(    7) = (   0.0000000   0.1111111   0.2222222), wk =   0.0658436
        k(    8) = (   0.0000000   0.1111111   0.3333333), wk =   0.0658436
        k(    9) = (   0.0000000   0.1111111   0.4444444), wk =   0.0658436
        k(   10) = (   0.0000000   0.2222222   0.2222222), wk =   0.0329218
        k(   11) = (   0.0000000   0.2222222   0.3333333), wk =   0.0658436
        k(   12) = (   0.0000000   0.2222222   0.4444444), wk =   0.0658436
        k(   13) = (   0.0000000   0.3333333   0.3333333), wk =   0.0329218
        k(   14) = (   0.0000000   0.3333333   0.4444444), wk =   0.0658436
        k(   15) = (   0.0000000   0.4444444   0.4444444), wk =   0.0329218
        k(   16) = (   0.1111111   0.1111111   0.1111111), wk =   0.0219479
        k(   17) = (   0.1111111   0.1111111   0.2222222), wk =   0.0658436
        k(   18) = (   0.1111111   0.1111111   0.3333333), wk =   0.0658436
        k(   19) = (   0.1111111   0.1111111   0.4444444), wk =   0.0658436
        k(   20) = (   0.1111111   0.2222222   0.2222222), wk =   0.0658436
        k(   21) = (   0.1111111   0.2222222   0.3333333), wk =   0.1316872
        k(   22) = (   0.1111111   0.2222222   0.4444444), wk =   0.1316872
        k(   23) = (   0.1111111   0.3333333   0.3333333), wk =   0.0658436
        k(   24) = (   0.1111111   0.3333333   0.4444444), wk =   0.1316872
        k(   25) = (   0.1111111   0.4444444   0.4444444), wk =   0.0658436
        k(   26) = (   0.2222222   0.2222222   0.2222222), wk =   0.0219479
        k(   27) = (   0.2222222   0.2222222   0.3333333), wk =   0.0658436
        k(   28) = (   0.2222222   0.2222222   0.4444444), wk =   0.0658436
        k(   29) = (   0.2222222   0.3333333   0.3333333), wk =   0.0658436
        k(   30) = (   0.2222222   0.3333333   0.4444444), wk =   0.1316872
        k(   31) = (   0.2222222   0.4444444   0.4444444), wk =   0.0658436
        k(   32) = (   0.3333333   0.3333333   0.3333333), wk =   0.0219479
        k(   33) = (   0.3333333   0.3333333   0.4444444), wk =   0.0658436
        k(   34) = (   0.3333333   0.4444444   0.4444444), wk =   0.0658436
        k(   35) = (   0.4444444   0.4444444   0.4444444), wk =   0.0219479

     Dense  grid:    63077 G-vectors     FFT dimensions: (  50,  50,  50)

     Smooth grid:    11753 G-vectors     FFT dimensions: (  30,  30,  30)

     Estimated max dynamical RAM per process >      35.27 MB

     Estimated total dynamical RAM >     282.15 MB

     Check: negative core charge=   -0.000015

     Initial potential from superposition of free atoms

     starting charge      26.9995, renormalised to      28.0000

     negative rho (up, down):  1.188E-03 0.000E+00
     Starting wfcs are   23 randomized atomic wfcs
     Checking if some PAW data can be deallocated... 

     total cpu time spent up to now is        1.3 secs

     per-process dynamical memory:   140.8 Mb

     Self-consistent Calculation

     iteration #  1     ecut=    64.00 Ry     beta= 0.70
     Davidson diagonalization with overlap
     ethr =  1.00E-02,  avg # of iterations =  2.1
     Minimization algorithm failed to find Fermi energy: reverting to bisection
     Possible cause: smearing is larger than the electronic band-gap.

     negative rho (up, down):  2.082E-04 0.000E+00

     total cpu time spent up to now is        1.7 secs

     total energy              =    -434.90099133 Ry
     estimated scf accuracy    <      17.44949827 Ry

     iteration #  2     ecut=    64.00 Ry     beta= 0.70
     Davidson diagonalization with overlap
     ethr =  1.00E-02,  avg # of iterations =  6.1

     negative rho (up, down):  7.285E-05 0.000E+00

     total cpu time spent up to now is        2.3 secs

     total energy              =    -448.56775199 Ry
     estimated scf accuracy    <      65.77447813 Ry

     iteration #  3     ecut=    64.00 Ry     beta= 0.70
     Davidson diagonalization with overlap
     ethr =  1.00E-02,  avg # of iterations =  3.1

     negative rho (up, down):  1.535E-04 0.000E+00

     total cpu time spent up to now is        2.7 secs

     total energy              =    -448.57841701 Ry
     estimated scf accuracy    <      16.77752366 Ry

     iteration #  4     ecut=    64.00 Ry     beta= 0.70
     Davidson diagonalization with overlap
     ethr =  1.00E-02,  avg # of iterations =  2.2

     negative rho (up, down):  1.912E-04 0.000E+00

     total cpu time spent up to now is        3.0 secs

     total energy              =    -449.10788971 Ry
     estimated scf accuracy    <       4.67010742 Ry

     iteration #  5     ecut=    64.00 Ry     beta= 0.70
     Davidson diagonalization with overlap
     ethr =  1.00E-02,  avg # of iterations =  1.0

     negative rho (up, down):  2.225E-04 0.000E+00

     total cpu time spent up to now is        3.4 secs

     total energy              =    -449.12183243 Ry
     estimated scf accuracy    <       4.29535151 Ry

     iteration #  6     ecut=    64.00 Ry     beta= 0.70
     Davidson diagonalization with overlap
     ethr =  1.00E-02,  avg # of iterations =  1.0

     negative rho (up, down):  9.251E-04 0.000E+00

     total cpu time spent up to now is        3.7 secs

     total energy              =    -448.00838726 Ry
     estimated scf accuracy    <       4.40438613 Ry

     iteration #  7     ecut=    64.00 Ry     beta= 0.70
     Davidson diagonalization with overlap
     ethr =  1.00E-02,  avg # of iterations =  2.7

     negative rho (up, down):  8.533E-04 0.000E+00

     total cpu time spent up to now is        4.1 secs

     total energy              =    -448.53417257 Ry
     estimated scf accuracy    <       1.48076667 Ry

     iteration #  8     ecut=    64.00 Ry     beta= 0.70
     Davidson diagonalization with overlap
     ethr =  5.29E-03,  avg # of iterations =  1.0

     negative rho (up, down):  6.963E-04 0.000E+00

     total cpu time spent up to now is        4.4 secs

     total energy              =    -448.58659128 Ry
     estimated scf accuracy    <       0.20772797 Ry

     iteration #  9     ecut=    64.00 Ry     beta= 0.70
     Davidson diagonalization with overlap
     ethr =  7.42E-04,  avg # of iterations =  2.4

     negative rho (up, down):  8.875E-04 0.000E+00

     total cpu time spent up to now is        4.7 secs

     WARNING: integrated charge=    28.00636502, expected=    28.00000000

     total energy              =    -448.57030552 Ry
     estimated scf accuracy    <       0.13157337 Ry

     iteration # 10     ecut=    64.00 Ry     beta= 0.70
     Davidson diagonalization with overlap
     ethr =  4.70E-04,  avg # of iterations =  2.5

     negative rho (up, down):  1.208E-03 0.000E+00

     total cpu time spent up to now is        5.1 secs

     WARNING: integrated charge=    28.01067770, expected=    28.00000000

     total energy              =    -448.64017879 Ry
     estimated scf accuracy    <       0.04448506 Ry

     iteration # 11     ecut=    64.00 Ry     beta= 0.70
     Davidson diagonalization with overlap
     ethr =  1.59E-04,  avg # of iterations =  6.0

     negative rho (up, down):  2.337E-03 0.000E+00

     total cpu time spent up to now is        5.6 secs

     WARNING: integrated charge=    28.01888503, expected=    28.00000000

     total energy              =    -449.48605581 Ry
     estimated scf accuracy    <       4.27775389 Ry

     iteration # 12     ecut=    64.00 Ry     beta= 0.70
     Davidson diagonalization with overlap
     ethr =  1.59E-04,  avg # of iterations =  5.5

     negative rho (up, down):  3.955E-04 0.000E+00

     total cpu time spent up to now is        6.1 secs

     WARNING: integrated charge=    27.99127672, expected=    28.00000000

     total energy              =    -445.70198348 Ry
     estimated scf accuracy    <      29.14160459 Ry

     iteration # 13     ecut=    64.00 Ry     beta= 0.70
     Davidson diagonalization with overlap
     ethr =  1.59E-04,  avg # of iterations =  7.7

     negative rho (up, down):  5.036E-04 0.000E+00

     total cpu time spent up to now is        6.7 secs

     WARNING: integrated charge=    27.99538806, expected=    28.00000000

     total energy              =    -448.65692180 Ry
     estimated scf accuracy    <       1.94897675 Ry

     iteration # 14     ecut=    64.00 Ry     beta= 0.70
     Davidson diagonalization with overlap
     ethr =  1.59E-04,  avg # of iterations =  2.6

     negative rho (up, down):  4.946E-04 0.000E+00

     total cpu time spent up to now is        7.1 secs

     WARNING: integrated charge=    27.99514835, expected=    28.00000000

     total energy              =    -448.67559723 Ry
     estimated scf accuracy    <       0.97858536 Ry

     iteration # 15     ecut=    64.00 Ry     beta= 0.70
     Davidson diagonalization with overlap
     ethr =  1.59E-04,  avg # of iterations =  1.0

     negative rho (up, down):  4.199E-04 0.000E+00

     total cpu time spent up to now is        7.4 secs

     WARNING: integrated charge=    27.99357285, expected=    28.00000000

     total energy              =    -448.71341843 Ry
     estimated scf accuracy    <       0.98392254 Ry

     iteration # 16     ecut=    64.00 Ry     beta= 0.70
     Davidson diagonalization with overlap
     ethr =  1.59E-04,  avg # of iterations =  1.0

     negative rho (up, down):  7.536E-04 0.000E+00

     total cpu time spent up to now is        7.7 secs

     WARNING: integrated charge=    28.00002816, expected=    28.00000000

     total energy              =    -448.52426281 Ry
     estimated scf accuracy    <       1.25157584 Ry

     iteration # 17     ecut=    64.00 Ry     beta= 0.70
     Davidson diagonalization with overlap
     ethr =  1.59E-04,  avg # of iterations =  4.5

     negative rho (up, down):  7.340E-04 0.000E+00

     total cpu time spent up to now is        8.2 secs

     WARNING: integrated charge=    27.99935272, expected=    28.00000000

     total energy              =    -448.58455241 Ry
     estimated scf accuracy    <       0.04177989 Ry

     iteration # 18     ecut=    64.00 Ry     beta= 0.70
     Davidson diagonalization with overlap
     ethr =  1.49E-04,  avg # of iterations =  1.0

     negative rho (up, down):  7.349E-04 0.000E+00

     total cpu time spent up to now is        8.5 secs

     WARNING: integrated charge=    27.99954848, expected=    28.00000000

     total energy              =    -448.58499659 Ry
     estimated scf accuracy    <       0.06119198 Ry

     iteration # 19     ecut=    64.00 Ry     beta= 0.70
     Davidson diagonalization with overlap
     ethr =  1.49E-04,  avg # of iterations =  1.0

     negative rho (up, down):  7.456E-04 0.000E+00

     total cpu time spent up to now is        8.8 secs

     WARNING: integrated charge=    27.99983055, expected=    28.00000000

     total energy              =    -448.58344909 Ry
     estimated scf accuracy    <       0.06078665 Ry

     iteration # 20     ecut=    64.00 Ry     beta= 0.70
     Davidson diagonalization with overlap
     ethr =  1.49E-04,  avg # of iterations =  1.0

     negative rho (up, down):  7.316E-04 0.000E+00

     total cpu time spent up to now is        9.1 secs

     WARNING: integrated charge=    27.99966640, expected=    28.00000000

     total energy              =    -448.58352790 Ry
     estimated scf accuracy    <       0.04694297 Ry

     iteration # 21     ecut=    64.00 Ry     beta= 0.70
     Davidson diagonalization with overlap
     ethr =  1.49E-04,  avg # of iterations =  1.0

     negative rho (up, down):  9.335E-04 0.000E+00

     total cpu time spent up to now is        9.5 secs

     WARNING: integrated charge=    28.00154786, expected=    28.00000000

     total energy              =    -448.57178634 Ry
     estimated scf accuracy    <       0.03991930 Ry

     iteration # 22     ecut=    64.00 Ry     beta= 0.70
     Davidson diagonalization with overlap
     ethr =  1.43E-04,  avg # of iterations =  3.3

     negative rho (up, down):  9.464E-04 0.000E+00

     total cpu time spent up to now is        9.8 secs

     WARNING: integrated charge=    28.00125205, expected=    28.00000000

     total energy              =    -448.58077302 Ry
     estimated scf accuracy    <       0.02337091 Ry

     iteration # 23     ecut=    64.00 Ry     beta= 0.70
     Davidson diagonalization with overlap
     ethr =  8.35E-05,  avg # of iterations =  1.0

     negative rho (up, down):  9.400E-04 0.000E+00

     total cpu time spent up to now is       10.2 secs

     WARNING: integrated charge=    28.00139198, expected=    28.00000000

     total energy              =    -448.58105934 Ry
     estimated scf accuracy    <       0.02329479 Ry

     iteration # 24     ecut=    64.00 Ry     beta= 0.70
     Davidson diagonalization with overlap
     ethr =  8.32E-05,  avg # of iterations =  1.0

     negative rho (up, down):  9.263E-04 0.000E+00

     total cpu time spent up to now is       10.5 secs

     WARNING: integrated charge=    28.00059699, expected=    28.00000000

     total energy              =    -448.57991225 Ry
     estimated scf accuracy    <       0.02514122 Ry

     iteration # 25     ecut=    64.00 Ry     beta= 0.70
     Davidson diagonalization with overlap
     ethr =  8.32E-05,  avg # of iterations =  1.0

     negative rho (up, down):  9.311E-04 0.000E+00

     total cpu time spent up to now is       10.8 secs

     WARNING: integrated charge=    28.00033378, expected=    28.00000000

     total energy              =    -448.58018141 Ry
     estimated scf accuracy    <       0.01014382 Ry

     iteration # 26     ecut=    64.00 Ry     beta= 0.70
     Davidson diagonalization with overlap
     ethr =  3.62E-05,  avg # of iterations =  1.0

     negative rho (up, down):  8.410E-04 0.000E+00

     total cpu time spent up to now is       11.1 secs

     WARNING: integrated charge=    28.00006786, expected=    28.00000000

     total energy              =    -448.57817705 Ry
     estimated scf accuracy    <       0.00956294 Ry

     iteration # 27     ecut=    64.00 Ry     beta= 0.70
     Davidson diagonalization with overlap
     ethr =  3.42E-05,  avg # of iterations =  2.7

     negative rho (up, down):  8.558E-04 0.000E+00

     total cpu time spent up to now is       11.5 secs

     WARNING: integrated charge=    28.00008559, expected=    28.00000000

     total energy              =    -448.57912090 Ry
     estimated scf accuracy    <       0.00021080 Ry

     iteration # 28     ecut=    64.00 Ry     beta= 0.70
     Davidson diagonalization with overlap
     ethr =  7.53E-07,  avg # of iterations =  3.7

     negative rho (up, down):  8.580E-04 0.000E+00

     total cpu time spent up to now is       11.9 secs

     WARNING: integrated charge=    28.00009686, expected=    28.00000000

     total energy              =    -448.57921929 Ry
     estimated scf accuracy    <       0.00010303 Ry

     iteration # 29     ecut=    64.00 Ry     beta= 0.70
     Davidson diagonalization with overlap
     ethr =  3.68E-07,  avg # of iterations =  1.0

     negative rho (up, down):  8.674E-04 0.000E+00

     total cpu time spent up to now is       12.2 secs

     WARNING: integrated charge=    28.00009168, expected=    28.00000000

     total energy              =    -448.57923243 Ry
     estimated scf accuracy    <       0.00021345 Ry

     iteration # 30     ecut=    64.00 Ry     beta= 0.70
     Davidson diagonalization with overlap
     ethr =  3.68E-07,  avg # of iterations =  1.5

     negative rho (up, down):  8.673E-04 0.000E+00

     total cpu time spent up to now is       12.5 secs

     WARNING: integrated charge=    28.00005087, expected=    28.00000000

     total energy              =    -448.57923263 Ry
     estimated scf accuracy    <       0.00039992 Ry

     iteration # 31     ecut=    64.00 Ry     beta= 0.70
     Davidson diagonalization with overlap
     ethr =  3.68E-07,  avg # of iterations =  1.0

     negative rho (up, down):  8.755E-04 0.000E+00

     total cpu time spent up to now is       12.9 secs

     WARNING: integrated charge=    27.99969092, expected=    28.00000000

     total energy              =    -448.57915249 Ry
     estimated scf accuracy    <       0.00037408 Ry

     iteration # 32     ecut=    64.00 Ry     beta= 0.70
     Davidson diagonalization with overlap
     ethr =  3.68E-07,  avg # of iterations =  3.2

     negative rho (up, down):  8.732E-04 0.000E+00

     total cpu time spent up to now is       13.2 secs

     WARNING: integrated charge=    28.00006100, expected=    28.00000000

     total energy              =    -448.57918733 Ry
     estimated scf accuracy    <       0.00000964 Ry

     iteration # 33     ecut=    64.00 Ry     beta= 0.70
     Davidson diagonalization with overlap
     ethr =  3.44E-08,  avg # of iterations =  3.1

     negative rho (up, down):  8.727E-04 0.000E+00

     total cpu time spent up to now is       13.6 secs

     WARNING: integrated charge=    28.00005284, expected=    28.00000000

     total energy              =    -448.57919082 Ry
     estimated scf accuracy    <       0.00001772 Ry

     iteration # 34     ecut=    64.00 Ry     beta= 0.70
     Davidson diagonalization with overlap
     ethr =  3.44E-08,  avg # of iterations =  1.0

     negative rho (up, down):  8.741E-04 0.000E+00

     total cpu time spent up to now is       13.9 secs

     WARNING: integrated charge=    27.99999615, expected=    28.00000000

     total energy              =    -448.57918513 Ry
     estimated scf accuracy    <       0.00002698 Ry

     iteration # 35     ecut=    64.00 Ry     beta= 0.70
     Davidson diagonalization with overlap
     ethr =  3.44E-08,  avg # of iterations =  3.4

     negative rho (up, down):  8.743E-04 0.000E+00

     total cpu time spent up to now is       14.3 secs

     WARNING: integrated charge=    27.99999691, expected=    28.00000000

     total energy              =    -448.57918836 Ry
     estimated scf accuracy    <       0.00000215 Ry

     iteration # 36     ecut=    64.00 Ry     beta= 0.70
     Davidson diagonalization with overlap
     ethr =  7.67E-09,  avg # of iterations =  1.6

     negative rho (up, down):  8.745E-04 0.000E+00

     total cpu time spent up to now is       14.6 secs

     total energy              =    -448.57918832 Ry
     estimated scf accuracy    <       0.00000103 Ry

     iteration # 37     ecut=    64.00 Ry     beta= 0.70
     Davidson diagonalization with overlap
     ethr =  3.69E-09,  avg # of iterations =  1.7

     negative rho (up, down):  8.748E-04 0.000E+00

     total cpu time spent up to now is       15.0 secs

     total energy              =    -448.57918833 Ry
     estimated scf accuracy    <       0.00000015 Ry

     iteration # 38     ecut=    64.00 Ry     beta= 0.70
     Davidson diagonalization with overlap
     ethr =  5.40E-10,  avg # of iterations =  3.2

     negative rho (up, down):  8.746E-04 0.000E+00

     total cpu time spent up to now is       15.3 secs

     total energy              =    -448.57918836 Ry
     estimated scf accuracy    <       0.00000014 Ry

     iteration # 39     ecut=    64.00 Ry     beta= 0.70
     Davidson diagonalization with overlap
     ethr =  5.16E-10,  avg # of iterations =  1.7

     negative rho (up, down):  8.746E-04 0.000E+00

     total cpu time spent up to now is       15.7 secs

     End of self-consistent calculation

          k = 0.0000 0.0000 0.0000 (  1419 PWs)   bands (ev):

   -69.2047 -39.1384 -35.2576 -35.2576 -35.2576 -15.2326 -15.2326 -15.2326
    10.1562  13.8681  13.8681  16.6633  16.6633  16.6633  19.0064  19.0064
    20.9480  20.9480

          k = 0.0000 0.0000 0.1111 (  1458 PWs)   bands (ev):

   -69.2045 -39.1352 -35.2620 -35.2576 -35.2576 -15.2758 -15.2301 -15.2301
    10.4137  13.9920  14.0002  16.6447  16.6447  16.7194  18.8492  19.0641
    20.5862  20.5862

          k = 0.0000 0.0000 0.2222 (  1458 PWs)   bands (ev):

   -69.2035 -39.1273 -35.2716 -35.2561 -35.2561 -15.3839 -15.2235 -15.2235
    11.1482  14.3154  14.3499  16.6082  16.6082  16.8707  18.4042  19.1681
    19.8221  19.8221

          k = 0.0000 0.0000 0.3333 (  1458 PWs)   bands (ev):

   -69.2023 -39.1183 -35.2825 -35.2543 -35.2543 -15.5050 -15.2161 -15.2161
    12.2401  14.5656  14.8898  16.5902  16.5902  17.0632  17.7603  19.0731
    19.0952  19.0952

          k = 0.0000 0.0000 0.4444 (  1474 PWs)   bands (ev):

   -69.2016 -39.1124 -35.2896 -35.2535 -35.2535 -15.5829 -15.2112 -15.2112
    13.4423  14.3644  15.4438  16.5987  16.5987  17.1357  17.2046  18.6598
    18.6598  18.6916

          k = 0.0000 0.1111 0.1111 (  1462 PWs)   bands (ev):

   -69.2041 -39.1318 -35.2635 -35.2600 -35.2571 -15.2770 -15.2682 -15.2273
    10.6634  14.1041  14.1362  16.5230  16.6093  16.8523  18.8384  19.0225
    20.2188  20.2272

          k = 0.0000 0.1111 0.2222 (  1470 PWs)   bands (ev):

   -69.2031 -39.1232 -35.2725 -35.2604 -35.2557 -15.3796 -15.2642 -15.2204
    11.3719  14.3928  14.4909  16.4144  16.5304  16.9778  18.5239  19.1091
    19.5237  19.6266

          k = 0.0000 0.1111 0.3333 (  1482 PWs)   bands (ev):

   -69.2020 -39.1134 -35.2839 -35.2598 -35.2542 -15.4988 -15.2552 -15.2124
    12.4127  14.6342  14.9714  16.3831  16.4536  16.9801  18.0236  18.7332
    19.2045  19.2971

          k = 0.0000 0.1111 0.4444 (  1477 PWs)   bands (ev):

   -69.2012 -39.1070 -35.2908 -35.2593 -35.2532 -15.5756 -15.2494 -15.2072
    13.5339  14.4226  15.4530  16.3753  16.4297  16.8620  17.6169  18.3355
    19.0670  19.1273

          k = 0.0000 0.2222 0.2222 (  1472 PWs)   bands (ev):

   -69.2021 -39.1127 -35.2764 -35.2685 -35.2545 -15.3777 -15.3571 -15.2123
    11.9902  14.5199  14.9089  16.1697  16.3928  16.9271  18.6841  18.9328
    19.0801  19.4492

          k = 0.0000 0.2222 0.3333 (  1484 PWs)   bands (ev):

   -69.2010 -39.1009 -35.2867 -35.2724 -35.2531 -15.4832 -15.3533 -15.2031
    12.8395  14.5625  15.4186  16.0333  16.3597  16.6341  18.4559  18.5706
    19.2765  19.5555

          k = 0.0000 0.2222 0.4444 (  1483 PWs)   bands (ev):

   -69.2002 -39.0931 -35.2941 -35.2737 -35.2521 -15.5569 -15.3450 -15.1971
    13.6376  14.3519  15.7721  16.0537  16.3110  16.5313  18.1647  18.3887
    19.4484  19.7774

          k = 0.0000 0.3333 0.3333 (  1498 PWs)   bands (ev):

   -69.1999 -39.0866 -35.2914 -35.2854 -35.2521 -15.4722 -15.4565 -15.1925
    13.2812  14.3451  15.7760  16.0866  16.1919  16.6027  18.5035  18.9592
    19.1349  20.0142

          k = 0.0000 0.3333 0.4444 (  1487 PWs)   bands (ev):

   -69.1991 -39.0772 -35.2982 -35.2897 -35.2510 -15.5357 -15.4523 -15.1855
    13.5461  14.1347  15.7032  15.8530  16.5429  17.2615  18.2618  19.0258
    19.3981  20.4058

          k = 0.0000 0.4444 0.4444 (  1490 PWs)   bands (ev):

   -69.1984 -39.0668 -35.3011 -35.3000 -35.2501 -15.5228 -15.5204 -15.1779
    13.4136  13.9895  15.5256  15.5764  17.4162  17.9013  18.6640  18.9110
    19.4026  20.7961

          k = 0.1111 0.1111 0.1111 (  1460 PWs)   bands (ev):

   -69.2037 -39.1282 -35.2627 -35.2627 -35.2584 -15.2770 -15.2655 -15.2655
    10.9070  14.2415  14.2415  16.4843  16.4843  16.9346  18.9212  18.9212
    19.6920  20.5547

          k = 0.1111 0.1111 0.2222 (  1468 PWs)   bands (ev):

   -69.2027 -39.1190 -35.2727 -35.2613 -35.2589 -15.3753 -15.2627 -15.2588
    11.5949  14.5409  14.5628  16.3364  16.3856  16.9358  18.6356  19.0582
    19.2978  19.7917

          k = 0.1111 0.1111 0.3333 (  1479 PWs)   bands (ev):

   -69.2016 -39.1085 -35.2845 -35.2595 -35.2591 -15.4929 -15.2519 -15.2512
    12.5943  14.7821  14.9768  16.2529  16.3116  16.7842  18.2382  18.8303
    19.0934  19.4739

          k = 0.1111 0.1111 0.4444 (  1471 PWs)   bands (ev):

   -69.2008 -39.1016 -35.2918 -35.2590 -35.2583 -15.5687 -15.2462 -15.2448
    13.6501  14.5283  15.4033  16.0899  16.4672  16.6580  17.9115  18.4453
    18.6978  19.7811

          k = 0.1111 0.2222 0.2222 (  1471 PWs)   bands (ev):

   -69.2017 -39.1083 -35.2756 -35.2694 -35.2591 -15.3722 -15.3543 -15.2521
    12.2096  14.6877  14.9592  16.1115  16.2337  16.6676  18.7831  19.0581
    19.1836  19.5700

          k = 0.1111 0.2222 0.3333 (  1487 PWs)   bands (ev):

   -69.2006 -39.0961 -35.2867 -35.2723 -35.2584 -15.4781 -15.3496 -15.2422
    13.0456  14.7508  15.3835  15.9618  16.1871  16.3804  18.6635  18.7122
    19.1680  19.8301

          k = 0.1111 0.2222 0.4444 (  1487 PWs)   bands (ev):

   -69.1999 -39.0881 -35.2947 -35.2732 -35.2576 -15.5514 -15.3415 -15.2356
    13.8135  14.5286  15.5971  15.8946  16.2230  16.5027  18.2738  18.5513
    18.9389  20.4621

          k = 0.1111 0.3333 0.3333 (  1479 PWs)   bands (ev):

   -69.1994 -39.0819 -35.2905 -35.2852 -35.2571 -15.4672 -15.4537 -15.2315
    13.5028  14.5281  15.7262  16.0022  16.0504  16.3726  18.5391  19.0276
    19.1267  20.3771

          k = 0.1111 0.3333 0.4444 (  1487 PWs)   bands (ev):

   -69.1987 -39.0726 -35.2979 -35.2892 -35.2563 -15.5316 -15.4491 -15.2244
    13.7493  14.3220  15.6465  15.7461  16.4509  17.0337  18.2525  18.9293
    19.2108  20.7287

          k = 0.1111 0.4444 0.4444 (  1485 PWs)   bands (ev):

   -69.1980 -39.0625 -35.3002 -35.2994 -35.2554 -15.5197 -15.5176 -15.2171
    13.6176  14.1788  15.4923  15.5333  17.3152  17.6506  18.3907  18.4862
    19.5213  20.9996

          k = 0.2222 0.2222 0.2222 (  1478 PWs)   bands (ev):

   -69.2007 -39.0969 -35.2741 -35.2741 -35.2681 -15.3630 -15.3473 -15.3473
    12.8067  15.0924  15.0924  15.9675  15.9675  16.1387  18.9788  18.9788
    19.7379  19.8055

          k = 0.2222 0.2222 0.3333 (  1486 PWs)   bands (ev):

   -69.1996 -39.0839 -35.2870 -35.2723 -35.2711 -15.4653 -15.3412 -15.3393
    13.5782  15.2142  15.2597  15.8026  15.8817  15.9792  18.8134  18.8424
    19.2772  20.2103

          k = 0.2222 0.2222 0.4444 (  1486 PWs)   bands (ev):

   -69.1989 -39.0754 -35.2958 -35.2724 -35.2710 -15.5374 -15.3340 -15.3309
    14.1934  14.8310  15.3951  15.6761  16.0240  16.3908  18.3180  18.6319
    19.0656  20.5622

          k = 0.2222 0.3333 0.3333 (  1483 PWs)   bands (ev):

   -69.1985 -39.0700 -35.2886 -35.2857 -35.2708 -15.4545 -15.4465 -15.3293
    14.1138  14.9661  15.6109  15.6599  15.8799  15.9352  18.5829  18.7344
    19.5897  20.3168

          k = 0.2222 0.3333 0.4444 (  1486 PWs)   bands (ev):

   -69.1977 -39.0609 -35.2973 -35.2877 -35.2700 -15.5215 -15.4410 -15.3221
    14.2997  14.7608  15.5216  15.5673  16.1376  16.5663  18.2088  18.5147
    19.6361  20.6995

          k = 0.2222 0.4444 0.4444 (  1477 PWs)   bands (ev):

   -69.1969 -39.0515 -35.2981 -35.2978 -35.2688 -15.5117 -15.5104 -15.3154
    14.1860  14.6500  15.4228  15.4526  16.8903  16.9122  18.0441  18.2451
    19.9169  21.0542

          k = 0.3333 0.3333 0.3333 (  1463 PWs)   bands (ev):

   -69.1972 -39.0565 -35.2862 -35.2862 -35.2854 -15.4408 -15.4383 -15.4383
    14.8484  15.1344  15.5061  15.5061  15.7538  15.7538  18.4464  18.4464
    20.2380  20.2380

          k = 0.3333 0.3333 0.4444 (  1484 PWs)   bands (ev):

   -69.1966 -39.0476 -35.2964 -35.2862 -35.2853 -15.5100 -15.4330 -15.4305
    14.8676  15.0722  15.4831  15.5767  15.8030  16.2314  18.0808  18.3002
    20.2314  20.7896

          k = 0.3333 0.4444 0.4444 (  1484 PWs)   bands (ev):

   -69.1959 -39.0389 -35.2960 -35.2960 -35.2844 -15.5026 -15.5023 -15.4257
    14.9382  15.1392  15.3905  15.4821  16.2038  16.2791  17.9147  18.1083
    20.5455  21.0976

          k = 0.4444 0.4444 0.4444 (  1490 PWs)   bands (ev):

   -69.1952 -39.0306 -35.2950 -35.2946 -35.2946 -15.4970 -15.4970 -15.4964
    15.2821  15.4685  15.4685  15.8050  15.8050  15.8124  17.8860  17.8860
    21.1240  21.1240

     the Fermi energy is    17.6548 ev

!    total energy              =    -448.57918837 Ry
     estimated scf accuracy    <          9.1E-10 Ry
     smearing contrib. (-TS)   =      -0.00007559 Ry
     internal energy E=F+TS    =    -448.57911278 Ry

     The total energy is F=E-TS. E is the sum of the following terms:
     one-electron contribution =    -151.34526173 Ry
     hartree contribution      =      91.62856306 Ry
     xc contribution           =     -52.88945620 Ry
     ewald contribution        =    -259.82070277 Ry
     one-center paw contrib.   =     -76.15225514 Ry

     convergence has been achieved in  39 iterations

     negative rho (up, down):  8.746E-04 0.000E+00

     Forces acting on atoms (cartesian axes, Ry/au):

     atom    1 type  1   force =     0.00000000    0.00000000    0.00000000
     atom    2 type  2   force =     0.00000000    0.00000000    0.00000000

     Total force =     0.000000     Total SCF correction =     0.000000


     Computing stress (Cartesian axis) and pressure


     negative rho (up, down):  8.746E-04 0.000E+00
          total   stress  (Ry/bohr**3)                   (kbar)     P=       20.68
   0.00014055   0.00000000   0.00000000           20.68        0.00        0.00
   0.00000000   0.00014055   0.00000000            0.00       20.68        0.00
   0.00000000   0.00000000   0.00014055            0.00        0.00       20.68


     Writing all to output data dir ./TiFe.save/ :
     XML data file, charge density, pseudopotentials, collected wavefunctions

     init_run     :      0.64s CPU      0.86s WALL (       1 calls)
     electrons    :     13.93s CPU     14.42s WALL (       1 calls)
     forces       :      0.08s CPU      0.09s WALL (       1 calls)
     stress       :      0.42s CPU      0.42s WALL (       1 calls)

     Called by init_run:
     wfcinit      :      0.09s CPU      0.21s WALL (       1 calls)
     potinit      :      0.22s CPU      0.26s WALL (       1 calls)
     hinit0       :      0.24s CPU      0.29s WALL (       1 calls)

     Called by electrons:
     c_bands      :      6.81s CPU      7.09s WALL (      39 calls)
     sum_band     :      3.23s CPU      3.30s WALL (      39 calls)
     v_of_rho     :      0.24s CPU      0.26s WALL (      40 calls)
     newd         :      1.64s CPU      1.66s WALL (      40 calls)
     PAW_pot      :      2.04s CPU      2.10s WALL (      40 calls)
     mix_rho      :      0.04s CPU      0.04s WALL (      39 calls)

     Called by c_bands:
     init_us_2    :      0.16s CPU      0.17s WALL (    2835 calls)
     cegterg      :      6.51s CPU      6.78s WALL (    1365 calls)

     Called by *egterg:
     cdiaghg      :      1.25s CPU      1.41s WALL (    4608 calls)
     h_psi        :      4.58s CPU      4.77s WALL (    4643 calls)
     s_psi        :      0.12s CPU      0.12s WALL (    4643 calls)
     g_psi        :      0.02s CPU      0.02s WALL (    3243 calls)

     Called by h_psi:
     h_psi:calbec :      0.22s CPU      0.23s WALL (    4643 calls)
     vloc_psi     :      4.20s CPU      4.37s WALL (    4643 calls)
     add_vuspsi   :      0.13s CPU      0.14s WALL (    4643 calls)

     General routines
     calbec       :      0.31s CPU      0.33s WALL (    6603 calls)
     fft          :      0.28s CPU      0.31s WALL (     543 calls)
     ffts         :      0.15s CPU      0.15s WALL (      79 calls)
     fftw         :      3.89s CPU      4.04s WALL (  145068 calls)
     interpolate  :      0.16s CPU      0.16s WALL (      40 calls)

     Parallel routines

     PWSCF        :     15.28s CPU     17.21s WALL


   This run was terminated on:  22:20: 6  27Oct2025            

=------------------------------------------------------------------------------=
   JOB DONE.
=------------------------------------------------------------------------------=
Note: The following floating-point exceptions are signalling: IEEE_UNDERFLOW_FLAG IEEE_DENORMAL
Note: The following floating-point exceptions are signalling: IEEE_UNDERFLOW_FLAG IEEE_DENORMAL
Note: The following floating-point exceptions are signalling: IEEE_UNDERFLOW_FLAG IEEE_DENORMAL
Note: The following floating-point exceptions are signalling: IEEE_UNDERFLOW_FLAG IEEE_DENORMAL
Note: The following floating-point exceptions are signalling: IEEE_UNDERFLOW_FLAG IEEE_DENORMAL
Note: The following floating-point exceptions are signalling: IEEE_UNDERFLOW_FLAG IEEE_DENORMAL
Note: The following floating-point exceptions are signalling: IEEE_UNDERFLOW_FLAG IEEE_DENORMAL
Note: The following floating-point exceptions are signalling: IEEE_UNDERFLOW_FLAG IEEE_DENORMAL
