
     Program PWSCF v.7.4 starts on 27Oct2025 at 22:24:23 

     This program is part of the open-source Quantum ESPRESSO suite
     for quantum simulation of materials; please cite
         "P. Giannozzi et al., J. Phys.:Condens. Matter 21 395502 (2009);
         "P. Giannozzi et al., J. Phys.:Condens. Matter 29 465901 (2017);
         "P. Giannozzi et al., J. Chem. Phys. 152 154105 (2020);
          URL http://www.quantum-espresso.org", 
     in publications or presentations arising from this work. More details at
     http://www.quantum-espresso.org/quote

     Parallel version (MPI & OpenMP), running on       8 processor cores
     Number of MPI processes:                 8
     Threads/MPI process:                     1

     MPI processes distributed on     1 nodes
     222396 MiB available memory on the printing compute node when the environment starts

     Reading input from TiFe_kmesh_convergence/TiFe2_k404040.in

     Current dimensions of program PWSCF are:
     Max number of different atomic species (ntypx) = 10
     Max number of k-points (npk) =  40000
     Max angular momentum in pseudopotentials (lmaxx) =  4
     file Fe.pbe-spn-kjpaw_psl.0.2.1.UPF: wavefunction(s)  3D renormalized

     IMPORTANT: XC functional enforced from input :
     Exchange-correlation= PBE
                           (   1   4   3   4   0   0   0)
     Any further DFT definition will be discarded
     Please, verify this is what you really want

     Message from routine setup:
     using ibrav=0 with symmetry is DISCOURAGED, use correct ibrav instead

     R & G space division:  proc/nbgrp/npool/nimage =       8
     Subspace diagonalization in iterative solution of the eigenvalue problem:
     a serial algorithm will be used


     Parallelization info
     --------------------
     sticks:   dense  smooth     PW     G-vecs:    dense   smooth      PW
     Min         239      77     24                 7884     1467     262
     Max         242      78     25                 7885     1470     265
     Sum        1917     621    193                63077    11753    2103

     Using Slab Decomposition



     bravais-lattice index     =            0
     lattice parameter (alat)  =       5.5533  a.u.
     unit-cell volume          =     171.2590 (a.u.)^3
     number of atoms/cell      =            2
     number of atomic types    =            2
     number of electrons       =        28.00
     number of Kohn-Sham states=           18
     kinetic-energy cutoff     =      64.0000  Ry
     charge density cutoff     =     782.0000  Ry
     scf convergence threshold =      1.0E-08
     mixing beta               =       0.7000
     number of iterations used =            8  plain     mixing
     Exchange-correlation= PBE
                           (   1   4   3   4   0   0   0)

     celldm(1)=   5.553300  celldm(2)=   0.000000  celldm(3)=   0.000000
     celldm(4)=   0.000000  celldm(5)=   0.000000  celldm(6)=   0.000000

     crystal axes: (cart. coord. in units of alat)
               a(1) = (   1.000000   0.000000   0.000000 )  
               a(2) = (   0.000000   1.000000   0.000000 )  
               a(3) = (   0.000000   0.000000   1.000000 )  

     reciprocal axes: (cart. coord. in units 2 pi/alat)
               b(1) = (  1.000000  0.000000  0.000000 )  
               b(2) = (  0.000000  1.000000  0.000000 )  
               b(3) = (  0.000000  0.000000  1.000000 )  


     PseudoPot. # 1 for Fe read from file:
     ./Fe.pbe-spn-kjpaw_psl.0.2.1.UPF
     MD5 check sum: e86618425769142926afa95317d90200
     Pseudo is Projector augmented-wave + core cor, Zval = 16.0
     Generated using "atomic" code by A. Dal Corso  v.5.0.99 svn rev. 10869
     Shape of augmentation charge: PSQ
     Using radial grid of 1191 points,  6 beta functions with: 
                l(1) =   0
                l(2) =   0
                l(3) =   1
                l(4) =   1
                l(5) =   2
                l(6) =   2
     Q(r) pseudized with 0 coefficients 


     PseudoPot. # 2 for Ti read from file:
     ./Ti_pbe_v1.4.uspp.F.UPF
     MD5 check sum: 88a00a6731bd790ddea75d31a80cb452
     Pseudo is Ultrasoft + core correction, Zval = 12.0
     Generated by new atomic code, or converted to UPF format
     Using radial grid of  851 points,  6 beta functions with: 
                l(1) =   0
                l(2) =   0
                l(3) =   1
                l(4) =   1
                l(5) =   2
                l(6) =   2
     Q(r) pseudized with  6 coefficients,  rinner =    1.000   1.000   1.000
                                                       1.000   1.000

     atomic species   valence    mass     pseudopotential
     Fe               16.00    55.84500     Fe( 1.00)
     Ti               12.00    47.86700     Ti( 1.00)

     48 Sym. Ops., with inversion, found



   Cartesian axes

     site n.     atom                  positions (alat units)
         1        Fe     tau(   1) = (   0.5000000   0.5000000   0.5000000  )
         2        Ti     tau(   2) = (   0.0000000   0.0000000   0.0000000  )

     number of k points=  1771  Marzari-Vanderbilt smearing, width (Ry)=  0.0050

     Number of k-points >= 100: set verbosity='high' to print them.

     Dense  grid:    63077 G-vectors     FFT dimensions: (  50,  50,  50)

     Smooth grid:    11753 G-vectors     FFT dimensions: (  30,  30,  30)

     Estimated max dynamical RAM per process >     123.48 MB

     Estimated total dynamical RAM >     987.82 MB

     Check: negative core charge=   -0.000015

     Initial potential from superposition of free atoms

     starting charge      26.9995, renormalised to      28.0000

     negative rho (up, down):  1.188E-03 0.000E+00
     Starting wfcs are   23 randomized atomic wfcs
     Checking if some PAW data can be deallocated... 

     total cpu time spent up to now is        5.2 secs

     per-process dynamical memory:   216.1 Mb

     Self-consistent Calculation

     iteration #  1     ecut=    64.00 Ry     beta= 0.70
     Davidson diagonalization with overlap
     ethr =  1.00E-02,  avg # of iterations =  2.1

     negative rho (up, down):  2.077E-04 0.000E+00

     total cpu time spent up to now is       15.6 secs

     total energy              =    -434.93078948 Ry
     estimated scf accuracy    <      17.41474850 Ry

     iteration #  2     ecut=    64.00 Ry     beta= 0.70
     Davidson diagonalization with overlap
     ethr =  1.00E-02,  avg # of iterations =  6.1

     negative rho (up, down):  7.324E-05 0.000E+00

     total cpu time spent up to now is       35.6 secs

     total energy              =    -448.54914683 Ry
     estimated scf accuracy    <      65.76246830 Ry

     iteration #  3     ecut=    64.00 Ry     beta= 0.70
     Davidson diagonalization with overlap
     ethr =  1.00E-02,  avg # of iterations =  3.1

     negative rho (up, down):  1.537E-04 0.000E+00

     total cpu time spent up to now is       48.6 secs

     total energy              =    -448.58125576 Ry
     estimated scf accuracy    <      16.74223367 Ry

     iteration #  4     ecut=    64.00 Ry     beta= 0.70
     Davidson diagonalization with overlap
     ethr =  1.00E-02,  avg # of iterations =  2.1

     negative rho (up, down):  1.921E-04 0.000E+00

     total cpu time spent up to now is       58.9 secs

     total energy              =    -449.10558142 Ry
     estimated scf accuracy    <       4.72731463 Ry

     iteration #  5     ecut=    64.00 Ry     beta= 0.70
     Davidson diagonalization with overlap
     ethr =  1.00E-02,  avg # of iterations =  1.0

     negative rho (up, down):  2.116E-04 0.000E+00

     total cpu time spent up to now is       67.1 secs

     total energy              =    -449.12417247 Ry
     estimated scf accuracy    <       4.32565556 Ry

     iteration #  6     ecut=    64.00 Ry     beta= 0.70
     Davidson diagonalization with overlap
     ethr =  1.00E-02,  avg # of iterations =  1.0

     negative rho (up, down):  7.748E-04 0.000E+00

     total cpu time spent up to now is       75.3 secs

     total energy              =    -448.18455632 Ry
     estimated scf accuracy    <       4.39996706 Ry

     iteration #  7     ecut=    64.00 Ry     beta= 0.70
     Davidson diagonalization with overlap
     ethr =  1.00E-02,  avg # of iterations =  1.9

     negative rho (up, down):  7.593E-04 0.000E+00

     total cpu time spent up to now is       84.4 secs

     total energy              =    -448.55536930 Ry
     estimated scf accuracy    <       0.18651929 Ry

     iteration #  8     ecut=    64.00 Ry     beta= 0.70
     Davidson diagonalization with overlap
     ethr =  6.66E-04,  avg # of iterations =  4.3

     negative rho (up, down):  1.074E-03 0.000E+00

     total cpu time spent up to now is       96.9 secs

     total energy              =    -448.55345807 Ry
     estimated scf accuracy    <       0.06852350 Ry

     iteration #  9     ecut=    64.00 Ry     beta= 0.70
     Davidson diagonalization with overlap
     ethr =  2.45E-04,  avg # of iterations =  3.8

     negative rho (up, down):  9.579E-04 0.000E+00

     total cpu time spent up to now is      111.2 secs

     total energy              =    -448.51347671 Ry
     estimated scf accuracy    <       0.43549767 Ry

     iteration # 10     ecut=    64.00 Ry     beta= 0.70
     Davidson diagonalization with overlap
     ethr =  2.45E-04,  avg # of iterations =  4.6

     negative rho (up, down):  9.041E-04 0.000E+00

     total cpu time spent up to now is      124.2 secs

     total energy              =    -448.57926594 Ry
     estimated scf accuracy    <       0.76674016 Ry

     iteration # 11     ecut=    64.00 Ry     beta= 0.70
     Davidson diagonalization with overlap
     ethr =  2.45E-04,  avg # of iterations =  2.9

     negative rho (up, down):  8.276E-04 0.000E+00

     total cpu time spent up to now is      134.0 secs

     total energy              =    -448.59686933 Ry
     estimated scf accuracy    <       0.13759629 Ry

     iteration # 12     ecut=    64.00 Ry     beta= 0.70
     Davidson diagonalization with overlap
     ethr =  2.45E-04,  avg # of iterations =  1.9

     negative rho (up, down):  7.959E-04 0.000E+00

     total cpu time spent up to now is      143.2 secs

     total energy              =    -448.54109649 Ry
     estimated scf accuracy    <       0.45310910 Ry

     iteration # 13     ecut=    64.00 Ry     beta= 0.70
     Davidson diagonalization with overlap
     ethr =  2.45E-04,  avg # of iterations =  3.4

     negative rho (up, down):  7.816E-04 0.000E+00

     total cpu time spent up to now is      153.7 secs

     total energy              =    -448.58151142 Ry
     estimated scf accuracy    <       0.03939565 Ry

     iteration # 14     ecut=    64.00 Ry     beta= 0.70
     Davidson diagonalization with overlap
     ethr =  1.41E-04,  avg # of iterations =  1.0

     negative rho (up, down):  1.011E-03 0.000E+00

     total cpu time spent up to now is      161.9 secs

     total energy              =    -448.56880171 Ry
     estimated scf accuracy    <       0.03672139 Ry

     iteration # 15     ecut=    64.00 Ry     beta= 0.70
     Davidson diagonalization with overlap
     ethr =  1.31E-04,  avg # of iterations =  4.0

     negative rho (up, down):  8.919E-04 0.000E+00

     total cpu time spent up to now is      174.9 secs

     total energy              =    -448.55703769 Ry
     estimated scf accuracy    <       0.27631709 Ry

     iteration # 16     ecut=    64.00 Ry     beta= 0.70
     Davidson diagonalization with overlap
     ethr =  1.31E-04,  avg # of iterations =  3.6

     negative rho (up, down):  8.578E-04 0.000E+00

     total cpu time spent up to now is      185.7 secs

     total energy              =    -448.57839764 Ry
     estimated scf accuracy    <       0.01509022 Ry

     iteration # 17     ecut=    64.00 Ry     beta= 0.70
     Davidson diagonalization with overlap
     ethr =  5.39E-05,  avg # of iterations =  1.2

     negative rho (up, down):  8.722E-04 0.000E+00

     total cpu time spent up to now is      194.0 secs

     total energy              =    -448.57918888 Ry
     estimated scf accuracy    <       0.00065425 Ry

     iteration # 18     ecut=    64.00 Ry     beta= 0.70
     Davidson diagonalization with overlap
     ethr =  2.34E-06,  avg # of iterations =  4.1

     negative rho (up, down):  8.739E-04 0.000E+00

     total cpu time spent up to now is      205.9 secs

     total energy              =    -448.57931630 Ry
     estimated scf accuracy    <       0.00020624 Ry

     iteration # 19     ecut=    64.00 Ry     beta= 0.70
     Davidson diagonalization with overlap
     ethr =  7.37E-07,  avg # of iterations =  1.9

     negative rho (up, down):  8.766E-04 0.000E+00

     total cpu time spent up to now is      215.1 secs

     total energy              =    -448.57932184 Ry
     estimated scf accuracy    <       0.00006815 Ry

     iteration # 20     ecut=    64.00 Ry     beta= 0.70
     Davidson diagonalization with overlap
     ethr =  2.43E-07,  avg # of iterations =  2.6

     negative rho (up, down):  8.758E-04 0.000E+00

     total cpu time spent up to now is      225.0 secs

     total energy              =    -448.57932962 Ry
     estimated scf accuracy    <       0.00000164 Ry

     iteration # 21     ecut=    64.00 Ry     beta= 0.70
     Davidson diagonalization with overlap
     c_bands:  1 eigenvalues not converged
     ethr =  5.84E-09,  avg # of iterations =  5.6

     negative rho (up, down):  8.760E-04 0.000E+00

     total cpu time spent up to now is      241.0 secs

     total energy              =    -448.57933186 Ry
     estimated scf accuracy    <       0.00000055 Ry

     iteration # 22     ecut=    64.00 Ry     beta= 0.70
     Davidson diagonalization with overlap
     ethr =  1.96E-09,  avg # of iterations =  2.0

     negative rho (up, down):  8.754E-04 0.000E+00

     total cpu time spent up to now is      250.7 secs

     total energy              =    -448.57933196 Ry
     estimated scf accuracy    <       0.00000034 Ry

     iteration # 23     ecut=    64.00 Ry     beta= 0.70
     Davidson diagonalization with overlap
     ethr =  1.21E-09,  avg # of iterations =  3.7

     negative rho (up, down):  8.757E-04 0.000E+00

     total cpu time spent up to now is      264.1 secs

     total energy              =    -448.57933156 Ry
     estimated scf accuracy    <       0.00000252 Ry

     iteration # 24     ecut=    64.00 Ry     beta= 0.70
     Davidson diagonalization with overlap
     ethr =  1.21E-09,  avg # of iterations =  4.3

     negative rho (up, down):  8.755E-04 0.000E+00

     total cpu time spent up to now is      277.8 secs

     total energy              =    -448.57933177 Ry
     estimated scf accuracy    <       0.00000021 Ry

     iteration # 25     ecut=    64.00 Ry     beta= 0.70
     Davidson diagonalization with overlap
     ethr =  7.38E-10,  avg # of iterations =  1.0

     negative rho (up, down):  8.755E-04 0.000E+00

     total cpu time spent up to now is      286.0 secs

     End of self-consistent calculation

     Number of k-points >= 100: set verbosity='high' to print the bands.

     the Fermi energy is    17.6865 ev

!    total energy              =    -448.57933177 Ry
     estimated scf accuracy    <          9.4E-09 Ry
     smearing contrib. (-TS)   =      -0.00000352 Ry
     internal energy E=F+TS    =    -448.57932825 Ry

     The total energy is F=E-TS. E is the sum of the following terms:
     one-electron contribution =    -151.33347191 Ry
     hartree contribution      =      91.61505059 Ry
     xc contribution           =     -52.88784159 Ry
     ewald contribution        =    -259.82070277 Ry
     one-center paw contrib.   =     -76.15236257 Ry

     convergence has been achieved in  25 iterations

     negative rho (up, down):  8.755E-04 0.000E+00

     Forces acting on atoms (cartesian axes, Ry/au):

     atom    1 type  1   force =     0.00000000    0.00000000    0.00000000
     atom    2 type  2   force =     0.00000000    0.00000000    0.00000000

     Total force =     0.000000     Total SCF correction =     0.000000


     Computing stress (Cartesian axis) and pressure


     negative rho (up, down):  8.755E-04 0.000E+00
          total   stress  (Ry/bohr**3)                   (kbar)     P=       20.86
   0.00014178   0.00000000   0.00000000           20.86        0.00        0.00
   0.00000000   0.00014178   0.00000000            0.00       20.86        0.00
   0.00000000   0.00000000   0.00014178            0.00        0.00       20.86


     Writing all to output data dir ./TiFe.save/ :
     XML data file, charge density, pseudopotentials, collected wavefunctions

     init_run     :      4.71s CPU      4.96s WALL (       1 calls)
     electrons    :    270.28s CPU    280.91s WALL (       1 calls)
     forces       :      0.58s CPU      0.59s WALL (       1 calls)
     stress       :      2.68s CPU      2.72s WALL (       1 calls)

     Called by init_run:
     wfcinit      :      4.15s CPU      4.38s WALL (       1 calls)
     potinit      :      0.22s CPU      0.23s WALL (       1 calls)
     hinit0       :      0.24s CPU      0.25s WALL (       1 calls)

     Called by electrons:
     c_bands      :    237.14s CPU    246.25s WALL (      25 calls)
     sum_band     :     30.68s CPU     32.09s WALL (      25 calls)
     v_of_rho     :      0.16s CPU      0.17s WALL (      26 calls)
     newd         :      1.00s CPU      1.02s WALL (      26 calls)
     PAW_pot      :      1.34s CPU      1.37s WALL (      26 calls)
     mix_rho      :      0.02s CPU      0.02s WALL (      25 calls)

     Called by c_bands:
     init_us_2    :      5.14s CPU      5.35s WALL (   93863 calls)
     cegterg      :    227.79s CPU    236.58s WALL (   44275 calls)

     Called by *egterg:
     cdiaghg      :     48.44s CPU     50.08s WALL (  174296 calls)
     h_psi        :    155.45s CPU    161.82s WALL (  176067 calls)
     s_psi        :      4.15s CPU      4.35s WALL (  176067 calls)
     g_psi        :      0.84s CPU      0.87s WALL (  130021 calls)

     Called by h_psi:
     h_psi:calbec :      7.62s CPU      7.95s WALL (  176067 calls)
     vloc_psi     :    142.34s CPU    148.14s WALL (  176067 calls)
     add_vuspsi   :      4.56s CPU      4.77s WALL (  176067 calls)

     General routines
     calbec       :     11.00s CPU     11.52s WALL (  250449 calls)
     fft          :      0.24s CPU      0.25s WALL (     361 calls)
     ffts         :      0.15s CPU      0.15s WALL (      51 calls)
     fftw         :    135.45s CPU    140.87s WALL ( 4957602 calls)
     interpolate  :      0.16s CPU      0.16s WALL (      26 calls)

     Parallel routines

     PWSCF        :    279.93s CPU    325.51s WALL


   This run was terminated on:  22:29:49  27Oct2025            

=------------------------------------------------------------------------------=
   JOB DONE.
=------------------------------------------------------------------------------=
Note: The following floating-point exceptions are signalling: IEEE_UNDERFLOW_FLAG IEEE_DENORMAL
Note: The following floating-point exceptions are signalling: IEEE_UNDERFLOW_FLAG IEEE_DENORMAL
Note: The following floating-point exceptions are signalling: IEEE_UNDERFLOW_FLAG IEEE_DENORMAL
Note: The following floating-point exceptions are signalling: IEEE_UNDERFLOW_FLAG IEEE_DENORMAL
Note: The following floating-point exceptions are signalling: IEEE_UNDERFLOW_FLAG IEEE_DENORMAL
Note: The following floating-point exceptions are signalling: IEEE_UNDERFLOW_FLAG IEEE_DENORMAL
Note: The following floating-point exceptions are signalling: IEEE_UNDERFLOW_FLAG IEEE_DENORMAL
Note: The following floating-point exceptions are signalling: IEEE_UNDERFLOW_FLAG IEEE_DENORMAL
