
     Program PWSCF v.7.4 starts on 27Oct2025 at 22:29:49 

     This program is part of the open-source Quantum ESPRESSO suite
     for quantum simulation of materials; please cite
         "P. Giannozzi et al., J. Phys.:Condens. Matter 21 395502 (2009);
         "P. Giannozzi et al., J. Phys.:Condens. Matter 29 465901 (2017);
         "P. Giannozzi et al., J. Chem. Phys. 152 154105 (2020);
          URL http://www.quantum-espresso.org", 
     in publications or presentations arising from this work. More details at
     http://www.quantum-espresso.org/quote

     Parallel version (MPI & OpenMP), running on       8 processor cores
     Number of MPI processes:                 8
     Threads/MPI process:                     1

     MPI processes distributed on     1 nodes
     218296 MiB available memory on the printing compute node when the environment starts

     Reading input from TiFe_kmesh_convergence/TiFe2_k505050.in

     Current dimensions of program PWSCF are:
     Max number of different atomic species (ntypx) = 10
     Max number of k-points (npk) =  40000
     Max angular momentum in pseudopotentials (lmaxx) =  4
     file Fe.pbe-spn-kjpaw_psl.0.2.1.UPF: wavefunction(s)  3D renormalized

     IMPORTANT: XC functional enforced from input :
     Exchange-correlation= PBE
                           (   1   4   3   4   0   0   0)
     Any further DFT definition will be discarded
     Please, verify this is what you really want

     Message from routine setup:
     using ibrav=0 with symmetry is DISCOURAGED, use correct ibrav instead

     R & G space division:  proc/nbgrp/npool/nimage =       8
     Subspace diagonalization in iterative solution of the eigenvalue problem:
     a serial algorithm will be used


     Parallelization info
     --------------------
     sticks:   dense  smooth     PW     G-vecs:    dense   smooth      PW
     Min         239      77     24                 7884     1467     262
     Max         242      78     25                 7885     1470     265
     Sum        1917     621    193                63077    11753    2103

     Using Slab Decomposition



     bravais-lattice index     =            0
     lattice parameter (alat)  =       5.5533  a.u.
     unit-cell volume          =     171.2590 (a.u.)^3
     number of atoms/cell      =            2
     number of atomic types    =            2
     number of electrons       =        28.00
     number of Kohn-Sham states=           18
     kinetic-energy cutoff     =      64.0000  Ry
     charge density cutoff     =     782.0000  Ry
     scf convergence threshold =      1.0E-08
     mixing beta               =       0.7000
     number of iterations used =            8  plain     mixing
     Exchange-correlation= PBE
                           (   1   4   3   4   0   0   0)

     celldm(1)=   5.553300  celldm(2)=   0.000000  celldm(3)=   0.000000
     celldm(4)=   0.000000  celldm(5)=   0.000000  celldm(6)=   0.000000

     crystal axes: (cart. coord. in units of alat)
               a(1) = (   1.000000   0.000000   0.000000 )  
               a(2) = (   0.000000   1.000000   0.000000 )  
               a(3) = (   0.000000   0.000000   1.000000 )  

     reciprocal axes: (cart. coord. in units 2 pi/alat)
               b(1) = (  1.000000  0.000000  0.000000 )  
               b(2) = (  0.000000  1.000000  0.000000 )  
               b(3) = (  0.000000  0.000000  1.000000 )  


     PseudoPot. # 1 for Fe read from file:
     ./Fe.pbe-spn-kjpaw_psl.0.2.1.UPF
     MD5 check sum: e86618425769142926afa95317d90200
     Pseudo is Projector augmented-wave + core cor, Zval = 16.0
     Generated using "atomic" code by A. Dal Corso  v.5.0.99 svn rev. 10869
     Shape of augmentation charge: PSQ
     Using radial grid of 1191 points,  6 beta functions with: 
                l(1) =   0
                l(2) =   0
                l(3) =   1
                l(4) =   1
                l(5) =   2
                l(6) =   2
     Q(r) pseudized with 0 coefficients 


     PseudoPot. # 2 for Ti read from file:
     ./Ti_pbe_v1.4.uspp.F.UPF
     MD5 check sum: 88a00a6731bd790ddea75d31a80cb452
     Pseudo is Ultrasoft + core correction, Zval = 12.0
     Generated by new atomic code, or converted to UPF format
     Using radial grid of  851 points,  6 beta functions with: 
                l(1) =   0
                l(2) =   0
                l(3) =   1
                l(4) =   1
                l(5) =   2
                l(6) =   2
     Q(r) pseudized with  6 coefficients,  rinner =    1.000   1.000   1.000
                                                       1.000   1.000

     atomic species   valence    mass     pseudopotential
     Fe               16.00    55.84500     Fe( 1.00)
     Ti               12.00    47.86700     Ti( 1.00)

     48 Sym. Ops., with inversion, found



   Cartesian axes

     site n.     atom                  positions (alat units)
         1        Fe     tau(   1) = (   0.5000000   0.5000000   0.5000000  )
         2        Ti     tau(   2) = (   0.0000000   0.0000000   0.0000000  )

     number of k points=  3276  Marzari-Vanderbilt smearing, width (Ry)=  0.0050

     Number of k-points >= 100: set verbosity='high' to print them.

     Dense  grid:    63077 G-vectors     FFT dimensions: (  50,  50,  50)

     Smooth grid:    11753 G-vectors     FFT dimensions: (  30,  30,  30)

     Estimated max dynamical RAM per process >     199.95 MB

     Estimated total dynamical RAM >       1.56 GB

     Check: negative core charge=   -0.000015

     Initial potential from superposition of free atoms

     starting charge      26.9995, renormalised to      28.0000

     negative rho (up, down):  1.188E-03 0.000E+00
     Starting wfcs are   23 randomized atomic wfcs
     Checking if some PAW data can be deallocated... 

     total cpu time spent up to now is        9.0 secs

     per-process dynamical memory:   300.0 Mb

     Self-consistent Calculation

     iteration #  1     ecut=    64.00 Ry     beta= 0.70
     Davidson diagonalization with overlap
     ethr =  1.00E-02,  avg # of iterations =  2.1

     negative rho (up, down):  2.077E-04 0.000E+00

     total cpu time spent up to now is       28.4 secs

     total energy              =    -434.93214602 Ry
     estimated scf accuracy    <      17.41315696 Ry

     iteration #  2     ecut=    64.00 Ry     beta= 0.70
     Davidson diagonalization with overlap
     ethr =  1.00E-02,  avg # of iterations =  6.1

     negative rho (up, down):  7.324E-05 0.000E+00

     total cpu time spent up to now is       65.7 secs

     total energy              =    -448.54792635 Ry
     estimated scf accuracy    <      65.76328826 Ry

     iteration #  3     ecut=    64.00 Ry     beta= 0.70
     Davidson diagonalization with overlap
     ethr =  1.00E-02,  avg # of iterations =  3.1

     negative rho (up, down):  1.537E-04 0.000E+00

     total cpu time spent up to now is       89.9 secs

     total energy              =    -448.58182853 Ry
     estimated scf accuracy    <      16.74025805 Ry

     iteration #  4     ecut=    64.00 Ry     beta= 0.70
     Davidson diagonalization with overlap
     ethr =  1.00E-02,  avg # of iterations =  2.1

     negative rho (up, down):  1.920E-04 0.000E+00

     total cpu time spent up to now is      109.1 secs

     total energy              =    -449.10588275 Ry
     estimated scf accuracy    <       4.73032856 Ry

     iteration #  5     ecut=    64.00 Ry     beta= 0.70
     Davidson diagonalization with overlap
     ethr =  1.00E-02,  avg # of iterations =  1.0

     negative rho (up, down):  2.111E-04 0.000E+00

     total cpu time spent up to now is      124.3 secs

     total energy              =    -449.12444900 Ry
     estimated scf accuracy    <       4.32840990 Ry

     iteration #  6     ecut=    64.00 Ry     beta= 0.70
     Davidson diagonalization with overlap
     ethr =  1.00E-02,  avg # of iterations =  1.0

     negative rho (up, down):  7.640E-04 0.000E+00

     total cpu time spent up to now is      139.5 secs

     total energy              =    -448.20252132 Ry
     estimated scf accuracy    <       4.40062442 Ry

     iteration #  7     ecut=    64.00 Ry     beta= 0.70
     Davidson diagonalization with overlap
     ethr =  1.00E-02,  avg # of iterations =  1.9

     negative rho (up, down):  7.534E-04 0.000E+00

     total cpu time spent up to now is      156.3 secs

     total energy              =    -448.55757962 Ry
     estimated scf accuracy    <       0.15897813 Ry

     iteration #  8     ecut=    64.00 Ry     beta= 0.70
     Davidson diagonalization with overlap
     ethr =  5.68E-04,  avg # of iterations =  4.5

     negative rho (up, down):  1.117E-03 0.000E+00

     total cpu time spent up to now is      180.8 secs

     total energy              =    -448.55770286 Ry
     estimated scf accuracy    <       0.06852477 Ry

     iteration #  9     ecut=    64.00 Ry     beta= 0.70
     Davidson diagonalization with overlap
     ethr =  2.45E-04,  avg # of iterations =  3.8

     negative rho (up, down):  9.569E-04 0.000E+00

     total cpu time spent up to now is      207.8 secs

     total energy              =    -448.49112129 Ry
     estimated scf accuracy    <       0.62980527 Ry

     iteration # 10     ecut=    64.00 Ry     beta= 0.70
     Davidson diagonalization with overlap
     ethr =  2.45E-04,  avg # of iterations =  4.6

     negative rho (up, down):  9.062E-04 0.000E+00

     total cpu time spent up to now is      232.9 secs

     total energy              =    -448.58019819 Ry
     estimated scf accuracy    <       0.72519730 Ry

     iteration # 11     ecut=    64.00 Ry     beta= 0.70
     Davidson diagonalization with overlap
     ethr =  2.45E-04,  avg # of iterations =  2.7

     negative rho (up, down):  8.171E-04 0.000E+00

     total cpu time spent up to now is      250.8 secs

     total energy              =    -448.59292839 Ry
     estimated scf accuracy    <       0.13931656 Ry

     iteration # 12     ecut=    64.00 Ry     beta= 0.70
     Davidson diagonalization with overlap
     ethr =  2.45E-04,  avg # of iterations =  1.8

     negative rho (up, down):  7.937E-04 0.000E+00

     total cpu time spent up to now is      267.6 secs

     total energy              =    -448.54806776 Ry
     estimated scf accuracy    <       0.34695570 Ry

     iteration # 13     ecut=    64.00 Ry     beta= 0.70
     Davidson diagonalization with overlap
     ethr =  2.45E-04,  avg # of iterations =  3.4

     negative rho (up, down):  7.787E-04 0.000E+00

     total cpu time spent up to now is      286.9 secs

     total energy              =    -448.58186138 Ry
     estimated scf accuracy    <       0.04176922 Ry

     iteration # 14     ecut=    64.00 Ry     beta= 0.70
     Davidson diagonalization with overlap
     ethr =  1.49E-04,  avg # of iterations =  1.0

     negative rho (up, down):  9.670E-04 0.000E+00

     total cpu time spent up to now is      302.2 secs

     total energy              =    -448.56956996 Ry
     estimated scf accuracy    <       0.04093906 Ry

     iteration # 15     ecut=    64.00 Ry     beta= 0.70
     Davidson diagonalization with overlap
     ethr =  1.46E-04,  avg # of iterations =  3.4

     negative rho (up, down):  8.907E-04 0.000E+00

     total cpu time spent up to now is      322.3 secs

     total energy              =    -448.56719285 Ry
     estimated scf accuracy    <       0.13990021 Ry

     iteration # 16     ecut=    64.00 Ry     beta= 0.70
     Davidson diagonalization with overlap
     ethr =  1.46E-04,  avg # of iterations =  2.8

     negative rho (up, down):  8.691E-04 0.000E+00

     total cpu time spent up to now is      340.3 secs

     total energy              =    -448.57875913 Ry
     estimated scf accuracy    <       0.00962313 Ry

     iteration # 17     ecut=    64.00 Ry     beta= 0.70
     Davidson diagonalization with overlap
     ethr =  3.44E-05,  avg # of iterations =  1.2

     negative rho (up, down):  8.648E-04 0.000E+00

     total cpu time spent up to now is      355.8 secs

     total energy              =    -448.57923999 Ry
     estimated scf accuracy    <       0.00041111 Ry

     iteration # 18     ecut=    64.00 Ry     beta= 0.70
     Davidson diagonalization with overlap
     c_bands:  1 eigenvalues not converged
     c_bands:  1 eigenvalues not converged
     c_bands:  1 eigenvalues not converged
     ethr =  1.47E-06,  avg # of iterations =  4.2

     negative rho (up, down):  8.797E-04 0.000E+00

     total cpu time spent up to now is      378.9 secs

     total energy              =    -448.57928855 Ry
     estimated scf accuracy    <       0.00013933 Ry

     iteration # 19     ecut=    64.00 Ry     beta= 0.70
     Davidson diagonalization with overlap
     ethr =  4.98E-07,  avg # of iterations =  3.2

     negative rho (up, down):  8.767E-04 0.000E+00

     total cpu time spent up to now is      400.7 secs

     total energy              =    -448.57932717 Ry
     estimated scf accuracy    <       0.00001895 Ry

     iteration # 20     ecut=    64.00 Ry     beta= 0.70
     Davidson diagonalization with overlap
     ethr =  6.77E-08,  avg # of iterations =  4.1

     negative rho (up, down):  8.763E-04 0.000E+00

     total cpu time spent up to now is      424.0 secs

     total energy              =    -448.57933141 Ry
     estimated scf accuracy    <       0.00000192 Ry

     iteration # 21     ecut=    64.00 Ry     beta= 0.70
     Davidson diagonalization with overlap
     ethr =  6.85E-09,  avg # of iterations =  4.0

     negative rho (up, down):  8.762E-04 0.000E+00

     total cpu time spent up to now is      445.7 secs

     total energy              =    -448.57933178 Ry
     estimated scf accuracy    <       0.00000076 Ry

     iteration # 22     ecut=    64.00 Ry     beta= 0.70
     Davidson diagonalization with overlap
     ethr =  2.70E-09,  avg # of iterations =  2.1

     negative rho (up, down):  8.758E-04 0.000E+00

     total cpu time spent up to now is      463.0 secs

     total energy              =    -448.57933167 Ry
     estimated scf accuracy    <       0.00000063 Ry

     iteration # 23     ecut=    64.00 Ry     beta= 0.70
     Davidson diagonalization with overlap
     ethr =  2.26E-09,  avg # of iterations =  1.6

     negative rho (up, down):  8.755E-04 0.000E+00

     total cpu time spent up to now is      479.2 secs

     total energy              =    -448.57933160 Ry
     estimated scf accuracy    <       0.00000023 Ry

     iteration # 24     ecut=    64.00 Ry     beta= 0.70
     Davidson diagonalization with overlap
     ethr =  8.15E-10,  avg # of iterations =  3.1

     negative rho (up, down):  8.755E-04 0.000E+00

     total cpu time spent up to now is      499.3 secs

     total energy              =    -448.57933165 Ry
     estimated scf accuracy    <       0.00000003 Ry

     iteration # 25     ecut=    64.00 Ry     beta= 0.70
     Davidson diagonalization with overlap
     ethr =  9.79E-11,  avg # of iterations =  3.7

     negative rho (up, down):  8.756E-04 0.000E+00

     total cpu time spent up to now is      520.0 secs

     End of self-consistent calculation

     Number of k-points >= 100: set verbosity='high' to print the bands.

     the Fermi energy is    17.6853 ev

!    total energy              =    -448.57933165 Ry
     estimated scf accuracy    <          8.5E-09 Ry
     smearing contrib. (-TS)   =      -0.00000188 Ry
     internal energy E=F+TS    =    -448.57932977 Ry

     The total energy is F=E-TS. E is the sum of the following terms:
     one-electron contribution =    -151.33584962 Ry
     hartree contribution      =      91.61776549 Ry
     xc contribution           =     -52.88817190 Ry
     ewald contribution        =    -259.82070277 Ry
     one-center paw contrib.   =     -76.15237096 Ry

     convergence has been achieved in  25 iterations

     negative rho (up, down):  8.756E-04 0.000E+00

     Forces acting on atoms (cartesian axes, Ry/au):

     atom    1 type  1   force =     0.00000000    0.00000000    0.00000000
     atom    2 type  2   force =     0.00000000    0.00000000    0.00000000

     Total force =     0.000000     Total SCF correction =     0.000000


     Computing stress (Cartesian axis) and pressure


     negative rho (up, down):  8.756E-04 0.000E+00
          total   stress  (Ry/bohr**3)                   (kbar)     P=       21.09
   0.00014337   0.00000000   0.00000000           21.09        0.00        0.00
   0.00000000   0.00014337   0.00000000            0.00       21.09        0.00
   0.00000000   0.00000000   0.00014337            0.00        0.00       21.09


     Writing all to output data dir ./TiFe.save/ :
     XML data file, charge density, pseudopotentials, collected wavefunctions

     init_run     :      8.39s CPU      8.77s WALL (       1 calls)
     electrons    :    492.59s CPU    511.09s WALL (       1 calls)
     forces       :      1.01s CPU      1.03s WALL (       1 calls)
     stress       :      4.60s CPU      4.68s WALL (       1 calls)

     Called by init_run:
     wfcinit      :      7.83s CPU      8.18s WALL (       1 calls)
     potinit      :      0.21s CPU      0.23s WALL (       1 calls)
     hinit0       :      0.24s CPU      0.24s WALL (       1 calls)

     Called by electrons:
     c_bands      :    433.99s CPU    449.82s WALL (      25 calls)
     sum_band     :     56.14s CPU     58.70s WALL (      25 calls)
     v_of_rho     :      0.16s CPU      0.17s WALL (      26 calls)
     newd         :      1.00s CPU      1.02s WALL (      26 calls)
     PAW_pot      :      1.34s CPU      1.37s WALL (      26 calls)
     mix_rho      :      0.02s CPU      0.02s WALL (      25 calls)

     Called by c_bands:
     init_us_2    :      9.49s CPU      9.88s WALL (  173628 calls)
     cegterg      :    416.68s CPU    431.94s WALL (   81900 calls)

     Called by *egterg:
     cdiaghg      :     88.02s CPU     90.87s WALL (  319959 calls)
     h_psi        :    285.17s CPU    296.21s WALL (  323235 calls)
     s_psi        :      7.43s CPU      7.76s WALL (  323235 calls)
     g_psi        :      1.51s CPU      1.57s WALL (  238059 calls)

     Called by h_psi:
     h_psi:calbec :     13.49s CPU     14.04s WALL (  323235 calls)
     vloc_psi     :    261.55s CPU    271.66s WALL (  323235 calls)
     add_vuspsi   :      8.39s CPU      8.76s WALL (  323235 calls)

     General routines
     calbec       :     19.83s CPU     20.72s WALL (  460827 calls)
     fft          :      0.24s CPU      0.25s WALL (     361 calls)
     ffts         :      0.15s CPU      0.15s WALL (      51 calls)
     fftw         :    239.47s CPU    248.86s WALL ( 8984664 calls)
     interpolate  :      0.16s CPU      0.16s WALL (      26 calls)

     Parallel routines

     PWSCF        :    509.75s CPU    592.44s WALL


   This run was terminated on:  22:39:42  27Oct2025            

=------------------------------------------------------------------------------=
   JOB DONE.
=------------------------------------------------------------------------------=
Note: The following floating-point exceptions are signalling: IEEE_UNDERFLOW_FLAG IEEE_DENORMAL
Note: The following floating-point exceptions are signalling: IEEE_UNDERFLOW_FLAG IEEE_DENORMAL
Note: The following floating-point exceptions are signalling: IEEE_UNDERFLOW_FLAG IEEE_DENORMAL
Note: The following floating-point exceptions are signalling: IEEE_UNDERFLOW_FLAG IEEE_DENORMAL
Note: The following floating-point exceptions are signalling: IEEE_UNDERFLOW_FLAG IEEE_DENORMAL
Note: The following floating-point exceptions are signalling: IEEE_UNDERFLOW_FLAG IEEE_DENORMAL
Note: The following floating-point exceptions are signalling: IEEE_UNDERFLOW_FLAG IEEE_DENORMAL
Note: The following floating-point exceptions are signalling: IEEE_UNDERFLOW_FLAG IEEE_DENORMAL
