
     Program PWSCF v.7.4 starts on 27Oct2025 at 21:56:43 

     This program is part of the open-source Quantum ESPRESSO suite
     for quantum simulation of materials; please cite
         "P. Giannozzi et al., J. Phys.:Condens. Matter 21 395502 (2009);
         "P. Giannozzi et al., J. Phys.:Condens. Matter 29 465901 (2017);
         "P. Giannozzi et al., J. Chem. Phys. 152 154105 (2020);
          URL http://www.quantum-espresso.org", 
     in publications or presentations arising from this work. More details at
     http://www.quantum-espresso.org/quote

     Parallel version (MPI & OpenMP), running on       8 processor cores
     Number of MPI processes:                 8
     Threads/MPI process:                     1

     MPI processes distributed on     1 nodes
     183717 MiB available memory on the printing compute node when the environment starts

     Reading input from TiFe_kmesh_convergence/TiFe2_k333.in

     Current dimensions of program PWSCF are:
     Max number of different atomic species (ntypx) = 10
     Max number of k-points (npk) =  40000
     Max angular momentum in pseudopotentials (lmaxx) =  4
     file Fe.pbe-spn-kjpaw_psl.0.2.1.UPF: wavefunction(s)  3D renormalized

     IMPORTANT: XC functional enforced from input :
     Exchange-correlation= PBE
                           (   1   4   3   4   0   0   0)
     Any further DFT definition will be discarded
     Please, verify this is what you really want

     Message from routine setup:
     using ibrav=0 with symmetry is DISCOURAGED, use correct ibrav instead

     R & G space division:  proc/nbgrp/npool/nimage =       8
     Subspace diagonalization in iterative solution of the eigenvalue problem:
     a serial algorithm will be used


     Parallelization info
     --------------------
     sticks:   dense  smooth     PW     G-vecs:    dense   smooth      PW
     Min         239      77     22                 7884     1467     232
     Max         242      78     24                 7885     1470     235
     Sum        1917     621    185                63077    11753    1863

     Using Slab Decomposition



     bravais-lattice index     =            0
     lattice parameter (alat)  =       5.5533  a.u.
     unit-cell volume          =     171.2590 (a.u.)^3
     number of atoms/cell      =            2
     number of atomic types    =            2
     number of electrons       =        28.00
     number of Kohn-Sham states=           18
     kinetic-energy cutoff     =      64.0000  Ry
     charge density cutoff     =     782.0000  Ry
     scf convergence threshold =      1.0E-08
     mixing beta               =       0.7000
     number of iterations used =            8  plain     mixing
     Exchange-correlation= PBE
                           (   1   4   3   4   0   0   0)

     celldm(1)=   5.553300  celldm(2)=   0.000000  celldm(3)=   0.000000
     celldm(4)=   0.000000  celldm(5)=   0.000000  celldm(6)=   0.000000

     crystal axes: (cart. coord. in units of alat)
               a(1) = (   1.000000   0.000000   0.000000 )  
               a(2) = (   0.000000   1.000000   0.000000 )  
               a(3) = (   0.000000   0.000000   1.000000 )  

     reciprocal axes: (cart. coord. in units 2 pi/alat)
               b(1) = (  1.000000  0.000000  0.000000 )  
               b(2) = (  0.000000  1.000000  0.000000 )  
               b(3) = (  0.000000  0.000000  1.000000 )  


     PseudoPot. # 1 for Fe read from file:
     ./Fe.pbe-spn-kjpaw_psl.0.2.1.UPF
     MD5 check sum: e86618425769142926afa95317d90200
     Pseudo is Projector augmented-wave + core cor, Zval = 16.0
     Generated using "atomic" code by A. Dal Corso  v.5.0.99 svn rev. 10869
     Shape of augmentation charge: PSQ
     Using radial grid of 1191 points,  6 beta functions with: 
                l(1) =   0
                l(2) =   0
                l(3) =   1
                l(4) =   1
                l(5) =   2
                l(6) =   2
     Q(r) pseudized with 0 coefficients 


     PseudoPot. # 2 for Ti read from file:
     ./Ti_pbe_v1.4.uspp.F.UPF
     MD5 check sum: 88a00a6731bd790ddea75d31a80cb452
     Pseudo is Ultrasoft + core correction, Zval = 12.0
     Generated by new atomic code, or converted to UPF format
     Using radial grid of  851 points,  6 beta functions with: 
                l(1) =   0
                l(2) =   0
                l(3) =   1
                l(4) =   1
                l(5) =   2
                l(6) =   2
     Q(r) pseudized with  6 coefficients,  rinner =    1.000   1.000   1.000
                                                       1.000   1.000

     atomic species   valence    mass     pseudopotential
     Fe               16.00    55.84500     Fe( 1.00)
     Ti               12.00    47.86700     Ti( 1.00)

     48 Sym. Ops., with inversion, found



   Cartesian axes

     site n.     atom                  positions (alat units)
         1        Fe     tau(   1) = (   0.5000000   0.5000000   0.5000000  )
         2        Ti     tau(   2) = (   0.0000000   0.0000000   0.0000000  )

     number of k points=     4  Marzari-Vanderbilt smearing, width (Ry)=  0.0050
                       cart. coord. in units 2pi/alat
        k(    1) = (   0.0000000   0.0000000   0.0000000), wk =   0.0740741
        k(    2) = (   0.0000000   0.0000000   0.3333333), wk =   0.4444444
        k(    3) = (   0.0000000   0.3333333   0.3333333), wk =   0.8888889
        k(    4) = (   0.3333333   0.3333333   0.3333333), wk =   0.5925926

     Dense  grid:    63077 G-vectors     FFT dimensions: (  50,  50,  50)

     Smooth grid:    11753 G-vectors     FFT dimensions: (  30,  30,  30)

     Estimated max dynamical RAM per process >      33.69 MB

     Estimated total dynamical RAM >     269.55 MB

     Check: negative core charge=   -0.000015

     Initial potential from superposition of free atoms

     starting charge      26.9995, renormalised to      28.0000

     negative rho (up, down):  1.188E-03 0.000E+00
     Starting wfcs are   23 randomized atomic wfcs
     Checking if some PAW data can be deallocated... 

     total cpu time spent up to now is        0.8 secs

     per-process dynamical memory:   140.7 Mb

     Self-consistent Calculation

     iteration #  1     ecut=    64.00 Ry     beta= 0.70
     Davidson diagonalization with overlap
     ethr =  1.00E-02,  avg # of iterations =  2.2

     negative rho (up, down):  2.189E-04 0.000E+00

     total cpu time spent up to now is        1.0 secs

     WARNING: integrated charge=    28.00143260, expected=    28.00000000

     total energy              =    -434.02970312 Ry
     estimated scf accuracy    <      18.44249092 Ry

     iteration #  2     ecut=    64.00 Ry     beta= 0.70
     Davidson diagonalization with overlap
     ethr =  1.00E-02,  avg # of iterations =  6.0

     negative rho (up, down):  5.549E-05 0.000E+00

     total cpu time spent up to now is        1.3 secs

     WARNING: integrated charge=    28.00109361, expected=    28.00000000

     total energy              =    -448.17521719 Ry
     estimated scf accuracy    <      70.18125775 Ry

     iteration #  3     ecut=    64.00 Ry     beta= 0.70
     Davidson diagonalization with overlap
     ethr =  1.00E-02,  avg # of iterations =  3.0

     negative rho (up, down):  1.413E-04 0.000E+00

     total cpu time spent up to now is        1.5 secs

     WARNING: integrated charge=    28.00087182, expected=    28.00000000

     total energy              =    -448.77728020 Ry
     estimated scf accuracy    <      17.14496339 Ry

     iteration #  4     ecut=    64.00 Ry     beta= 0.70
     Davidson diagonalization with overlap
     ethr =  1.00E-02,  avg # of iterations =  2.0

     negative rho (up, down):  1.524E-04 0.000E+00

     total cpu time spent up to now is        1.7 secs

     WARNING: integrated charge=    28.00083373, expected=    28.00000000

     total energy              =    -449.19614624 Ry
     estimated scf accuracy    <       5.35590905 Ry

     iteration #  5     ecut=    64.00 Ry     beta= 0.70
     Davidson diagonalization with overlap
     ethr =  1.00E-02,  avg # of iterations =  1.0

     negative rho (up, down):  5.100E-04 0.000E+00

     total cpu time spent up to now is        1.8 secs

     WARNING: integrated charge=    28.00064244, expected=    28.00000000

     total energy              =    -448.89748539 Ry
     estimated scf accuracy    <       4.63385412 Ry

     iteration #  6     ecut=    64.00 Ry     beta= 0.70
     Davidson diagonalization with overlap
     ethr =  1.00E-02,  avg # of iterations =  1.8

     negative rho (up, down):  8.683E-04 0.000E+00

     total cpu time spent up to now is        2.0 secs

     WARNING: integrated charge=    28.00045675, expected=    28.00000000

     total energy              =    -448.27753194 Ry
     estimated scf accuracy    <       3.84709211 Ry

     iteration #  7     ecut=    64.00 Ry     beta= 0.70
     Davidson diagonalization with overlap
     ethr =  1.00E-02,  avg # of iterations =  1.5

     negative rho (up, down):  9.360E-04 0.000E+00

     total cpu time spent up to now is        2.2 secs

     WARNING: integrated charge=    27.99888929, expected=    28.00000000

     total energy              =    -448.54272975 Ry
     estimated scf accuracy    <       0.02514398 Ry

     iteration #  8     ecut=    64.00 Ry     beta= 0.70
     Davidson diagonalization with overlap
     ethr =  8.98E-05,  avg # of iterations =  6.8

     negative rho (up, down):  7.601E-04 0.000E+00

     total cpu time spent up to now is        2.4 secs

     WARNING: integrated charge=    27.99780288, expected=    28.00000000

     total energy              =    -448.44588660 Ry
     estimated scf accuracy    <       2.15307679 Ry

     iteration #  9     ecut=    64.00 Ry     beta= 0.70
     Davidson diagonalization with overlap
     ethr =  8.98E-05,  avg # of iterations =  4.8

     negative rho (up, down):  7.609E-04 0.000E+00

     total cpu time spent up to now is        2.6 secs

     WARNING: integrated charge=    27.99683424, expected=    28.00000000

     total energy              =    -448.59970477 Ry
     estimated scf accuracy    <       0.09894510 Ry

     iteration # 10     ecut=    64.00 Ry     beta= 0.70
     Davidson diagonalization with overlap
     ethr =  8.98E-05,  avg # of iterations =  1.0

     negative rho (up, down):  5.863E-04 0.000E+00

     total cpu time spent up to now is        2.8 secs

     WARNING: integrated charge=    27.97516013, expected=    28.00000000

     total energy              =    -448.62504387 Ry
     estimated scf accuracy    <       0.10506691 Ry

     iteration # 11     ecut=    64.00 Ry     beta= 0.70
     Davidson diagonalization with overlap
     ethr =  8.98E-05,  avg # of iterations =  3.2

     negative rho (up, down):  5.329E-04 0.000E+00

     total cpu time spent up to now is        3.1 secs

     WARNING: integrated charge=    27.97492745, expected=    28.00000000

     total energy              =    -448.66889000 Ry
     estimated scf accuracy    <       0.41584295 Ry

     iteration # 12     ecut=    64.00 Ry     beta= 0.70
     Davidson diagonalization with overlap
     ethr =  8.98E-05,  avg # of iterations =  3.8

     negative rho (up, down):  4.361E-04 0.000E+00

     total cpu time spent up to now is        3.4 secs

     WARNING: integrated charge=    27.97315263, expected=    28.00000000

     total energy              =    -448.78889419 Ry
     estimated scf accuracy    <       0.93529458 Ry

     iteration # 13     ecut=    64.00 Ry     beta= 0.70
     Davidson diagonalization with overlap
     ethr =  8.98E-05,  avg # of iterations =  3.8

     negative rho (up, down):  1.209E-03 0.000E+00

     total cpu time spent up to now is        3.6 secs

     WARNING: integrated charge=    27.99863847, expected=    28.00000000

     total energy              =    -448.32402645 Ry
     estimated scf accuracy    <       2.14780251 Ry

     iteration # 14     ecut=    64.00 Ry     beta= 0.70
     Davidson diagonalization with overlap
     ethr =  8.98E-05,  avg # of iterations =  5.8

     negative rho (up, down):  1.611E-03 0.000E+00

     total cpu time spent up to now is        3.8 secs

     WARNING: integrated charge=    28.00485027, expected=    28.00000000

     total energy              =    -448.75317426 Ry
     estimated scf accuracy    <       1.43268748 Ry

     iteration # 15     ecut=    64.00 Ry     beta= 0.70
     Davidson diagonalization with overlap
     ethr =  8.98E-05,  avg # of iterations =  4.5

     negative rho (up, down):  1.483E-03 0.000E+00

     total cpu time spent up to now is        4.0 secs

     WARNING: integrated charge=    28.00378696, expected=    28.00000000

     total energy              =    -448.76512792 Ry
     estimated scf accuracy    <       6.12546593 Ry

     iteration # 16     ecut=    64.00 Ry     beta= 0.70
     Davidson diagonalization with overlap
     ethr =  8.98E-05,  avg # of iterations =  1.2
     Minimization algorithm failed to find Fermi energy: reverting to bisection
     Possible cause: smearing is larger than the electronic band-gap.

     negative rho (up, down):  9.269E-04 0.000E+00

     total cpu time spent up to now is        4.2 secs

     WARNING: integrated charge=    27.99819582, expected=    28.00000000

     total energy              =    -448.37768388 Ry
     estimated scf accuracy    <       5.01255067 Ry

     iteration # 17     ecut=    64.00 Ry     beta= 0.70
     Davidson diagonalization with overlap
     ethr =  8.98E-05,  avg # of iterations =  5.8

     negative rho (up, down):  7.990E-04 0.000E+00

     total cpu time spent up to now is        4.4 secs

     WARNING: integrated charge=    28.00011139, expected=    28.00000000

     total energy              =    -448.58977906 Ry
     estimated scf accuracy    <       0.00674098 Ry

     iteration # 18     ecut=    64.00 Ry     beta= 0.70
     Davidson diagonalization with overlap
     ethr =  2.41E-05,  avg # of iterations =  4.0

     negative rho (up, down):  7.574E-04 0.000E+00

     total cpu time spent up to now is        4.6 secs

     WARNING: integrated charge=    28.00042411, expected=    28.00000000

     total energy              =    -448.59797165 Ry
     estimated scf accuracy    <       0.05103440 Ry

     iteration # 19     ecut=    64.00 Ry     beta= 0.70
     Davidson diagonalization with overlap
     ethr =  2.41E-05,  avg # of iterations =  1.2

     negative rho (up, down):  8.137E-04 0.000E+00

     total cpu time spent up to now is        4.8 secs

     WARNING: integrated charge=    28.00090248, expected=    28.00000000

     total energy              =    -448.58878360 Ry
     estimated scf accuracy    <       0.09551035 Ry

     iteration # 20     ecut=    64.00 Ry     beta= 0.70
     Davidson diagonalization with overlap
     ethr =  2.41E-05,  avg # of iterations =  3.0

     negative rho (up, down):  7.926E-04 0.000E+00

     total cpu time spent up to now is        5.0 secs

     WARNING: integrated charge=    28.00064812, expected=    28.00000000

     total energy              =    -448.59250503 Ry
     estimated scf accuracy    <       0.01469637 Ry

     iteration # 21     ecut=    64.00 Ry     beta= 0.70
     Davidson diagonalization with overlap
     ethr =  2.41E-05,  avg # of iterations =  1.0

     negative rho (up, down):  7.743E-04 0.000E+00

     total cpu time spent up to now is        5.2 secs

     WARNING: integrated charge=    28.00031321, expected=    28.00000000

     total energy              =    -448.59381782 Ry
     estimated scf accuracy    <       0.03038432 Ry

     iteration # 22     ecut=    64.00 Ry     beta= 0.70
     Davidson diagonalization with overlap
     ethr =  2.41E-05,  avg # of iterations =  1.0

     negative rho (up, down):  7.892E-04 0.000E+00

     total cpu time spent up to now is        5.4 secs

     WARNING: integrated charge=    28.00077951, expected=    28.00000000

     total energy              =    -448.59259860 Ry
     estimated scf accuracy    <       0.04164345 Ry

     iteration # 23     ecut=    64.00 Ry     beta= 0.70
     Davidson diagonalization with overlap
     ethr =  2.41E-05,  avg # of iterations =  1.0

     negative rho (up, down):  8.070E-04 0.000E+00

     total cpu time spent up to now is        5.6 secs

     WARNING: integrated charge=    28.00017273, expected=    28.00000000

     total energy              =    -448.59137143 Ry
     estimated scf accuracy    <       0.02890258 Ry

     iteration # 24     ecut=    64.00 Ry     beta= 0.70
     Davidson diagonalization with overlap
     ethr =  2.41E-05,  avg # of iterations =  1.0

     negative rho (up, down):  8.747E-04 0.000E+00

     total cpu time spent up to now is        5.8 secs

     WARNING: integrated charge=    27.99948284, expected=    28.00000000

     total energy              =    -448.58831530 Ry
     estimated scf accuracy    <       0.02241556 Ry

     iteration # 25     ecut=    64.00 Ry     beta= 0.70
     Davidson diagonalization with overlap
     ethr =  2.41E-05,  avg # of iterations =  3.5

     negative rho (up, down):  8.851E-04 0.000E+00

     total cpu time spent up to now is        6.0 secs

     WARNING: integrated charge=    27.99957833, expected=    28.00000000

     total energy              =    -448.58970086 Ry
     estimated scf accuracy    <       0.00040393 Ry

     iteration # 26     ecut=    64.00 Ry     beta= 0.70
     Davidson diagonalization with overlap
     ethr =  1.44E-06,  avg # of iterations =  3.0

     negative rho (up, down):  8.793E-04 0.000E+00

     total cpu time spent up to now is        6.2 secs

     WARNING: integrated charge=    28.00003697, expected=    28.00000000

     total energy              =    -448.58970079 Ry
     estimated scf accuracy    <       0.00014881 Ry

     iteration # 27     ecut=    64.00 Ry     beta= 0.70
     Davidson diagonalization with overlap
     ethr =  5.31E-07,  avg # of iterations =  2.5

     negative rho (up, down):  8.839E-04 0.000E+00

     total cpu time spent up to now is        6.5 secs

     WARNING: integrated charge=    27.99996605, expected=    28.00000000

     total energy              =    -448.58971759 Ry
     estimated scf accuracy    <       0.00015853 Ry

     iteration # 28     ecut=    64.00 Ry     beta= 0.70
     Davidson diagonalization with overlap
     ethr =  5.31E-07,  avg # of iterations =  1.5

     negative rho (up, down):  8.833E-04 0.000E+00

     total cpu time spent up to now is        6.7 secs

     WARNING: integrated charge=    27.99991830, expected=    28.00000000

     total energy              =    -448.58973288 Ry
     estimated scf accuracy    <       0.00009877 Ry

     iteration # 29     ecut=    64.00 Ry     beta= 0.70
     Davidson diagonalization with overlap
     ethr =  3.53E-07,  avg # of iterations =  1.0

     negative rho (up, down):  8.867E-04 0.000E+00

     total cpu time spent up to now is        6.9 secs

     WARNING: integrated charge=    27.99992839, expected=    28.00000000

     total energy              =    -448.58973386 Ry
     estimated scf accuracy    <       0.00001795 Ry

     iteration # 30     ecut=    64.00 Ry     beta= 0.70
     Davidson diagonalization with overlap
     ethr =  6.41E-08,  avg # of iterations =  1.0

     negative rho (up, down):  8.917E-04 0.000E+00

     total cpu time spent up to now is        7.1 secs

     WARNING: integrated charge=    27.99998080, expected=    28.00000000

     total energy              =    -448.58972946 Ry
     estimated scf accuracy    <       0.00001176 Ry

     iteration # 31     ecut=    64.00 Ry     beta= 0.70
     Davidson diagonalization with overlap
     ethr =  4.20E-08,  avg # of iterations =  3.2

     negative rho (up, down):  8.903E-04 0.000E+00

     total cpu time spent up to now is        7.3 secs

     total energy              =    -448.58973198 Ry
     estimated scf accuracy    <       0.00000326 Ry

     iteration # 32     ecut=    64.00 Ry     beta= 0.70
     Davidson diagonalization with overlap
     ethr =  1.17E-08,  avg # of iterations =  1.8

     negative rho (up, down):  8.902E-04 0.000E+00

     total cpu time spent up to now is        7.5 secs

     total energy              =    -448.58973232 Ry
     estimated scf accuracy    <       0.00000002 Ry

     iteration # 33     ecut=    64.00 Ry     beta= 0.70
     Davidson diagonalization with overlap
     ethr =  6.75E-11,  avg # of iterations =  5.5

     negative rho (up, down):  8.902E-04 0.000E+00

     total cpu time spent up to now is        7.7 secs

     total energy              =    -448.58973238 Ry
     estimated scf accuracy    <       0.00000001 Ry

     iteration # 34     ecut=    64.00 Ry     beta= 0.70
     Davidson diagonalization with overlap
     ethr =  4.51E-11,  avg # of iterations =  2.0

     negative rho (up, down):  8.902E-04 0.000E+00

     total cpu time spent up to now is        7.9 secs

     End of self-consistent calculation

          k = 0.0000 0.0000 0.0000 (  1419 PWs)   bands (ev):

   -69.0802 -39.2910 -35.1349 -35.1349 -35.1349 -15.3786 -15.3786 -15.3786
    10.1623  13.8927  13.8927  16.7365  16.7365  16.7365  18.9915  18.9915
    20.8606  20.8606

          k = 0.0000 0.0000 0.3333 (  1458 PWs)   bands (ev):

   -69.0778 -39.2706 -35.1605 -35.1315 -35.1315 -15.6484 -15.3623 -15.3623
    12.2449  14.5871  14.9365  16.6786  16.6786  17.1597  17.7190  19.0066
    19.0066  19.1093

          k = 0.0000 0.3333 0.3333 (  1498 PWs)   bands (ev):

   -69.0755 -39.2394 -35.1689 -35.1631 -35.1293 -15.6160 -15.6005 -15.3389
    13.2910  14.3686  15.8259  16.1361  16.2548  16.6674  18.4871  18.9157
    19.1321  19.9474

          k = 0.3333 0.3333 0.3333 (  1463 PWs)   bands (ev):

   -69.0728 -39.2097 -35.1636 -35.1636 -35.1629 -15.5850 -15.5826 -15.5826
    14.8289  15.1923  15.5410  15.5410  15.7935  15.7935  18.4848  18.4848
    20.1521  20.1521

     the Fermi energy is    17.4860 ev

!    total energy              =    -448.58973238 Ry
     estimated scf accuracy    <          1.4E-10 Ry
     smearing contrib. (-TS)   =       0.00000000 Ry
     internal energy E=F+TS    =    -448.58973238 Ry

     The total energy is F=E-TS. E is the sum of the following terms:
     one-electron contribution =    -151.38210050 Ry
     hartree contribution      =      91.65066642 Ry
     xc contribution           =     -52.88511638 Ry
     ewald contribution        =    -259.82070277 Ry
     one-center paw contrib.   =     -76.15247915 Ry

     convergence has been achieved in  34 iterations

     negative rho (up, down):  8.902E-04 0.000E+00

     Forces acting on atoms (cartesian axes, Ry/au):

     atom    1 type  1   force =     0.00000000    0.00000000    0.00000000
     atom    2 type  2   force =     0.00000000    0.00000000    0.00000000

     Total force =     0.000000     Total SCF correction =     0.000000


     Computing stress (Cartesian axis) and pressure


     negative rho (up, down):  8.902E-04 0.000E+00
          total   stress  (Ry/bohr**3)                   (kbar)     P=       25.81
   0.00017547   0.00000000   0.00000000           25.81        0.00        0.00
   0.00000000   0.00017547   0.00000000            0.00       25.81        0.00
   0.00000000   0.00000000   0.00017547            0.00        0.00       25.81


     Writing all to output data dir ./TiFe.save/ :
     XML data file, charge density, pseudopotentials, collected wavefunctions

     init_run     :      0.58s CPU      0.61s WALL (       1 calls)
     electrons    :      6.94s CPU      7.15s WALL (       1 calls)
     forces       :      0.09s CPU      0.09s WALL (       1 calls)
     stress       :      0.42s CPU      0.42s WALL (       1 calls)

     Called by init_run:
     wfcinit      :      0.01s CPU      0.01s WALL (       1 calls)
     potinit      :      0.23s CPU      0.24s WALL (       1 calls)
     hinit0       :      0.25s CPU      0.26s WALL (       1 calls)

     Called by electrons:
     c_bands      :      0.81s CPU      0.85s WALL (      34 calls)
     sum_band     :      2.26s CPU      2.29s WALL (      34 calls)
     v_of_rho     :      0.22s CPU      0.25s WALL (      35 calls)
     newd         :      1.67s CPU      1.69s WALL (      35 calls)
     PAW_pot      :      2.01s CPU      2.05s WALL (      35 calls)
     mix_rho      :      0.03s CPU      0.04s WALL (      34 calls)

     Called by c_bands:
     init_us_2    :      0.02s CPU      0.02s WALL (     284 calls)
     cegterg      :      0.78s CPU      0.81s WALL (     136 calls)

     Called by *egterg:
     cdiaghg      :      0.16s CPU      0.16s WALL (     517 calls)
     h_psi        :      0.54s CPU      0.56s WALL (     521 calls)
     s_psi        :      0.01s CPU      0.01s WALL (     521 calls)
     g_psi        :      0.00s CPU      0.00s WALL (     381 calls)

     Called by h_psi:
     h_psi:calbec :      0.03s CPU      0.03s WALL (     521 calls)
     vloc_psi     :      0.49s CPU      0.51s WALL (     521 calls)
     add_vuspsi   :      0.02s CPU      0.02s WALL (     521 calls)

     General routines
     calbec       :      0.04s CPU      0.04s WALL (     725 calls)
     fft          :      0.28s CPU      0.29s WALL (     478 calls)
     ffts         :      0.15s CPU      0.16s WALL (      69 calls)
     fftw         :      0.44s CPU      0.46s WALL (   15130 calls)
     interpolate  :      0.16s CPU      0.17s WALL (      35 calls)

     Parallel routines

     PWSCF        :      8.25s CPU      8.80s WALL


   This run was terminated on:  21:56:52  27Oct2025            

=------------------------------------------------------------------------------=
   JOB DONE.
=------------------------------------------------------------------------------=
Note: The following floating-point exceptions are signalling: IEEE_UNDERFLOW_FLAG IEEE_DENORMAL
Note: The following floating-point exceptions are signalling: IEEE_UNDERFLOW_FLAG IEEE_DENORMAL
Note: The following floating-point exceptions are signalling: IEEE_UNDERFLOW_FLAG IEEE_DENORMAL
Note: The following floating-point exceptions are signalling: IEEE_UNDERFLOW_FLAG IEEE_DENORMAL
Note: The following floating-point exceptions are signalling: IEEE_UNDERFLOW_FLAG IEEE_DENORMAL
Note: The following floating-point exceptions are signalling: IEEE_UNDERFLOW_FLAG IEEE_DENORMAL
Note: The following floating-point exceptions are signalling: IEEE_UNDERFLOW_FLAG IEEE_DENORMAL
Note: The following floating-point exceptions are signalling: IEEE_UNDERFLOW_FLAG IEEE_DENORMAL
