
     Program PWSCF v.7.4 starts on 27Oct2025 at 22:20: 6 

     This program is part of the open-source Quantum ESPRESSO suite
     for quantum simulation of materials; please cite
         "P. Giannozzi et al., J. Phys.:Condens. Matter 21 395502 (2009);
         "P. Giannozzi et al., J. Phys.:Condens. Matter 29 465901 (2017);
         "P. Giannozzi et al., J. Chem. Phys. 152 154105 (2020);
          URL http://www.quantum-espresso.org", 
     in publications or presentations arising from this work. More details at
     http://www.quantum-espresso.org/quote

     Parallel version (MPI & OpenMP), running on       8 processor cores
     Number of MPI processes:                 8
     Threads/MPI process:                     1

     MPI processes distributed on     1 nodes
     218032 MiB available memory on the printing compute node when the environment starts

     Reading input from TiFe_kmesh_convergence/TiFe2_k121212.in

     Current dimensions of program PWSCF are:
     Max number of different atomic species (ntypx) = 10
     Max number of k-points (npk) =  40000
     Max angular momentum in pseudopotentials (lmaxx) =  4
     file Fe.pbe-spn-kjpaw_psl.0.2.1.UPF: wavefunction(s)  3D renormalized

     IMPORTANT: XC functional enforced from input :
     Exchange-correlation= PBE
                           (   1   4   3   4   0   0   0)
     Any further DFT definition will be discarded
     Please, verify this is what you really want

     Message from routine setup:
     using ibrav=0 with symmetry is DISCOURAGED, use correct ibrav instead

     R & G space division:  proc/nbgrp/npool/nimage =       8
     Subspace diagonalization in iterative solution of the eigenvalue problem:
     a serial algorithm will be used


     Parallelization info
     --------------------
     sticks:   dense  smooth     PW     G-vecs:    dense   smooth      PW
     Min         239      77     24                 7884     1467     262
     Max         242      78     25                 7885     1470     265
     Sum        1917     621    193                63077    11753    2103

     Using Slab Decomposition



     bravais-lattice index     =            0
     lattice parameter (alat)  =       5.5533  a.u.
     unit-cell volume          =     171.2590 (a.u.)^3
     number of atoms/cell      =            2
     number of atomic types    =            2
     number of electrons       =        28.00
     number of Kohn-Sham states=           18
     kinetic-energy cutoff     =      64.0000  Ry
     charge density cutoff     =     782.0000  Ry
     scf convergence threshold =      1.0E-08
     mixing beta               =       0.7000
     number of iterations used =            8  plain     mixing
     Exchange-correlation= PBE
                           (   1   4   3   4   0   0   0)

     celldm(1)=   5.553300  celldm(2)=   0.000000  celldm(3)=   0.000000
     celldm(4)=   0.000000  celldm(5)=   0.000000  celldm(6)=   0.000000

     crystal axes: (cart. coord. in units of alat)
               a(1) = (   1.000000   0.000000   0.000000 )  
               a(2) = (   0.000000   1.000000   0.000000 )  
               a(3) = (   0.000000   0.000000   1.000000 )  

     reciprocal axes: (cart. coord. in units 2 pi/alat)
               b(1) = (  1.000000  0.000000  0.000000 )  
               b(2) = (  0.000000  1.000000  0.000000 )  
               b(3) = (  0.000000  0.000000  1.000000 )  


     PseudoPot. # 1 for Fe read from file:
     ./Fe.pbe-spn-kjpaw_psl.0.2.1.UPF
     MD5 check sum: e86618425769142926afa95317d90200
     Pseudo is Projector augmented-wave + core cor, Zval = 16.0
     Generated using "atomic" code by A. Dal Corso  v.5.0.99 svn rev. 10869
     Shape of augmentation charge: PSQ
     Using radial grid of 1191 points,  6 beta functions with: 
                l(1) =   0
                l(2) =   0
                l(3) =   1
                l(4) =   1
                l(5) =   2
                l(6) =   2
     Q(r) pseudized with 0 coefficients 


     PseudoPot. # 2 for Ti read from file:
     ./Ti_pbe_v1.4.uspp.F.UPF
     MD5 check sum: 88a00a6731bd790ddea75d31a80cb452
     Pseudo is Ultrasoft + core correction, Zval = 12.0
     Generated by new atomic code, or converted to UPF format
     Using radial grid of  851 points,  6 beta functions with: 
                l(1) =   0
                l(2) =   0
                l(3) =   1
                l(4) =   1
                l(5) =   2
                l(6) =   2
     Q(r) pseudized with  6 coefficients,  rinner =    1.000   1.000   1.000
                                                       1.000   1.000

     atomic species   valence    mass     pseudopotential
     Fe               16.00    55.84500     Fe( 1.00)
     Ti               12.00    47.86700     Ti( 1.00)

     48 Sym. Ops., with inversion, found



   Cartesian axes

     site n.     atom                  positions (alat units)
         1        Fe     tau(   1) = (   0.5000000   0.5000000   0.5000000  )
         2        Ti     tau(   2) = (   0.0000000   0.0000000   0.0000000  )

     number of k points=    84  Marzari-Vanderbilt smearing, width (Ry)=  0.0050
                       cart. coord. in units 2pi/alat
        k(    1) = (   0.0000000   0.0000000   0.0000000), wk =   0.0011574
        k(    2) = (   0.0000000   0.0000000   0.0833333), wk =   0.0069444
        k(    3) = (   0.0000000   0.0000000   0.1666667), wk =   0.0069444
        k(    4) = (   0.0000000   0.0000000   0.2500000), wk =   0.0069444
        k(    5) = (   0.0000000   0.0000000   0.3333333), wk =   0.0069444
        k(    6) = (   0.0000000   0.0000000   0.4166667), wk =   0.0069444
        k(    7) = (   0.0000000   0.0000000  -0.5000000), wk =   0.0034722
        k(    8) = (   0.0000000   0.0833333   0.0833333), wk =   0.0138889
        k(    9) = (   0.0000000   0.0833333   0.1666667), wk =   0.0277778
        k(   10) = (   0.0000000   0.0833333   0.2500000), wk =   0.0277778
        k(   11) = (   0.0000000   0.0833333   0.3333333), wk =   0.0277778
        k(   12) = (   0.0000000   0.0833333   0.4166667), wk =   0.0277778
        k(   13) = (   0.0000000   0.0833333  -0.5000000), wk =   0.0138889
        k(   14) = (   0.0000000   0.1666667   0.1666667), wk =   0.0138889
        k(   15) = (   0.0000000   0.1666667   0.2500000), wk =   0.0277778
        k(   16) = (   0.0000000   0.1666667   0.3333333), wk =   0.0277778
        k(   17) = (   0.0000000   0.1666667   0.4166667), wk =   0.0277778
        k(   18) = (   0.0000000   0.1666667  -0.5000000), wk =   0.0138889
        k(   19) = (   0.0000000   0.2500000   0.2500000), wk =   0.0138889
        k(   20) = (   0.0000000   0.2500000   0.3333333), wk =   0.0277778
        k(   21) = (   0.0000000   0.2500000   0.4166667), wk =   0.0277778
        k(   22) = (   0.0000000   0.2500000  -0.5000000), wk =   0.0138889
        k(   23) = (   0.0000000   0.3333333   0.3333333), wk =   0.0138889
        k(   24) = (   0.0000000   0.3333333   0.4166667), wk =   0.0277778
        k(   25) = (   0.0000000   0.3333333  -0.5000000), wk =   0.0138889
        k(   26) = (   0.0000000   0.4166667   0.4166667), wk =   0.0138889
        k(   27) = (   0.0000000   0.4166667  -0.5000000), wk =   0.0138889
        k(   28) = (   0.0000000  -0.5000000  -0.5000000), wk =   0.0034722
        k(   29) = (   0.0833333   0.0833333   0.0833333), wk =   0.0092593
        k(   30) = (   0.0833333   0.0833333   0.1666667), wk =   0.0277778
        k(   31) = (   0.0833333   0.0833333   0.2500000), wk =   0.0277778
        k(   32) = (   0.0833333   0.0833333   0.3333333), wk =   0.0277778
        k(   33) = (   0.0833333   0.0833333   0.4166667), wk =   0.0277778
        k(   34) = (   0.0833333   0.0833333  -0.5000000), wk =   0.0138889
        k(   35) = (   0.0833333   0.1666667   0.1666667), wk =   0.0277778
        k(   36) = (   0.0833333   0.1666667   0.2500000), wk =   0.0555556
        k(   37) = (   0.0833333   0.1666667   0.3333333), wk =   0.0555556
        k(   38) = (   0.0833333   0.1666667   0.4166667), wk =   0.0555556
        k(   39) = (   0.0833333   0.1666667  -0.5000000), wk =   0.0277778
        k(   40) = (   0.0833333   0.2500000   0.2500000), wk =   0.0277778
        k(   41) = (   0.0833333   0.2500000   0.3333333), wk =   0.0555556
        k(   42) = (   0.0833333   0.2500000   0.4166667), wk =   0.0555556
        k(   43) = (   0.0833333   0.2500000  -0.5000000), wk =   0.0277778
        k(   44) = (   0.0833333   0.3333333   0.3333333), wk =   0.0277778
        k(   45) = (   0.0833333   0.3333333   0.4166667), wk =   0.0555556
        k(   46) = (   0.0833333   0.3333333  -0.5000000), wk =   0.0277778
        k(   47) = (   0.0833333   0.4166667   0.4166667), wk =   0.0277778
        k(   48) = (   0.0833333   0.4166667  -0.5000000), wk =   0.0277778
        k(   49) = (   0.0833333  -0.5000000  -0.5000000), wk =   0.0069444
        k(   50) = (   0.1666667   0.1666667   0.1666667), wk =   0.0092593
        k(   51) = (   0.1666667   0.1666667   0.2500000), wk =   0.0277778
        k(   52) = (   0.1666667   0.1666667   0.3333333), wk =   0.0277778
        k(   53) = (   0.1666667   0.1666667   0.4166667), wk =   0.0277778
        k(   54) = (   0.1666667   0.1666667  -0.5000000), wk =   0.0138889
        k(   55) = (   0.1666667   0.2500000   0.2500000), wk =   0.0277778
        k(   56) = (   0.1666667   0.2500000   0.3333333), wk =   0.0555556
        k(   57) = (   0.1666667   0.2500000   0.4166667), wk =   0.0555556
        k(   58) = (   0.1666667   0.2500000  -0.5000000), wk =   0.0277778
        k(   59) = (   0.1666667   0.3333333   0.3333333), wk =   0.0277778
        k(   60) = (   0.1666667   0.3333333   0.4166667), wk =   0.0555556
        k(   61) = (   0.1666667   0.3333333  -0.5000000), wk =   0.0277778
        k(   62) = (   0.1666667   0.4166667   0.4166667), wk =   0.0277778
        k(   63) = (   0.1666667   0.4166667  -0.5000000), wk =   0.0277778
        k(   64) = (   0.1666667  -0.5000000  -0.5000000), wk =   0.0069444
        k(   65) = (   0.2500000   0.2500000   0.2500000), wk =   0.0092593
        k(   66) = (   0.2500000   0.2500000   0.3333333), wk =   0.0277778
        k(   67) = (   0.2500000   0.2500000   0.4166667), wk =   0.0277778
        k(   68) = (   0.2500000   0.2500000  -0.5000000), wk =   0.0138889
        k(   69) = (   0.2500000   0.3333333   0.3333333), wk =   0.0277778
        k(   70) = (   0.2500000   0.3333333   0.4166667), wk =   0.0555556
        k(   71) = (   0.2500000   0.3333333  -0.5000000), wk =   0.0277778
        k(   72) = (   0.2500000   0.4166667   0.4166667), wk =   0.0277778
        k(   73) = (   0.2500000   0.4166667  -0.5000000), wk =   0.0277778
        k(   74) = (   0.2500000  -0.5000000  -0.5000000), wk =   0.0069444
        k(   75) = (   0.3333333   0.3333333   0.3333333), wk =   0.0092593
        k(   76) = (   0.3333333   0.3333333   0.4166667), wk =   0.0277778
        k(   77) = (   0.3333333   0.3333333  -0.5000000), wk =   0.0138889
        k(   78) = (   0.3333333   0.4166667   0.4166667), wk =   0.0277778
        k(   79) = (   0.3333333   0.4166667  -0.5000000), wk =   0.0277778
        k(   80) = (   0.3333333  -0.5000000  -0.5000000), wk =   0.0069444
        k(   81) = (   0.4166667   0.4166667   0.4166667), wk =   0.0092593
        k(   82) = (   0.4166667   0.4166667  -0.5000000), wk =   0.0138889
        k(   83) = (   0.4166667  -0.5000000  -0.5000000), wk =   0.0069444
        k(   84) = (  -0.5000000  -0.5000000  -0.5000000), wk =   0.0011574

     Dense  grid:    63077 G-vectors     FFT dimensions: (  50,  50,  50)

     Smooth grid:    11753 G-vectors     FFT dimensions: (  30,  30,  30)

     Estimated max dynamical RAM per process >      37.76 MB

     Estimated total dynamical RAM >     302.07 MB

     Check: negative core charge=   -0.000015

     Initial potential from superposition of free atoms

     starting charge      26.9995, renormalised to      28.0000

     negative rho (up, down):  1.188E-03 0.000E+00
     Starting wfcs are   23 randomized atomic wfcs
     Checking if some PAW data can be deallocated... 

     total cpu time spent up to now is        1.0 secs

     per-process dynamical memory:   140.8 Mb

     Self-consistent Calculation

     iteration #  1     ecut=    64.00 Ry     beta= 0.70
     Davidson diagonalization with overlap
     ethr =  1.00E-02,  avg # of iterations =  2.2

     negative rho (up, down):  2.080E-04 0.000E+00

     total cpu time spent up to now is        1.6 secs

     total energy              =    -434.90227621 Ry
     estimated scf accuracy    <      17.44757021 Ry

     iteration #  2     ecut=    64.00 Ry     beta= 0.70
     Davidson diagonalization with overlap
     ethr =  1.00E-02,  avg # of iterations =  6.0

     negative rho (up, down):  7.272E-05 0.000E+00

     total cpu time spent up to now is        2.7 secs

     total energy              =    -448.55063244 Ry
     estimated scf accuracy    <      65.85040189 Ry

     iteration #  3     ecut=    64.00 Ry     beta= 0.70
     Davidson diagonalization with overlap
     ethr =  1.00E-02,  avg # of iterations =  3.1

     negative rho (up, down):  1.534E-04 0.000E+00

     total cpu time spent up to now is        3.5 secs

     total energy              =    -448.58126018 Ry
     estimated scf accuracy    <      16.76429594 Ry

     iteration #  4     ecut=    64.00 Ry     beta= 0.70
     Davidson diagonalization with overlap
     ethr =  1.00E-02,  avg # of iterations =  2.1

     negative rho (up, down):  1.913E-04 0.000E+00

     total cpu time spent up to now is        4.2 secs

     total energy              =    -449.10358122 Ry
     estimated scf accuracy    <       4.77547787 Ry

     iteration #  5     ecut=    64.00 Ry     beta= 0.70
     Davidson diagonalization with overlap
     ethr =  1.00E-02,  avg # of iterations =  1.0

     negative rho (up, down):  2.211E-04 0.000E+00

     total cpu time spent up to now is        4.7 secs

     total energy              =    -449.12149321 Ry
     estimated scf accuracy    <       4.35046645 Ry

     iteration #  6     ecut=    64.00 Ry     beta= 0.70
     Davidson diagonalization with overlap
     ethr =  1.00E-02,  avg # of iterations =  1.0

     negative rho (up, down):  9.454E-04 0.000E+00

     total cpu time spent up to now is        5.3 secs

     total energy              =    -447.93112888 Ry
     estimated scf accuracy    <       4.48610625 Ry

     iteration #  7     ecut=    64.00 Ry     beta= 0.70
     Davidson diagonalization with overlap
     ethr =  1.00E-02,  avg # of iterations =  3.2

     negative rho (up, down):  8.518E-04 0.000E+00

     total cpu time spent up to now is        5.9 secs

     total energy              =    -448.50916755 Ry
     estimated scf accuracy    <       2.65976565 Ry

     iteration #  8     ecut=    64.00 Ry     beta= 0.70
     Davidson diagonalization with overlap
     ethr =  9.50E-03,  avg # of iterations =  1.0

     negative rho (up, down):  6.824E-04 0.000E+00

     total cpu time spent up to now is        6.5 secs

     total energy              =    -448.54253085 Ry
     estimated scf accuracy    <       0.32810337 Ry

     iteration #  9     ecut=    64.00 Ry     beta= 0.70
     Davidson diagonalization with overlap
     ethr =  1.17E-03,  avg # of iterations =  2.5

     negative rho (up, down):  7.384E-04 0.000E+00

     total cpu time spent up to now is        7.1 secs

     total energy              =    -448.58660957 Ry
     estimated scf accuracy    <       0.18729414 Ry

     iteration # 10     ecut=    64.00 Ry     beta= 0.70
     Davidson diagonalization with overlap
     ethr =  6.69E-04,  avg # of iterations =  1.2

     negative rho (up, down):  1.107E-03 0.000E+00

     total cpu time spent up to now is        7.6 secs

     total energy              =    -448.53407771 Ry
     estimated scf accuracy    <       0.12623099 Ry

     iteration # 11     ecut=    64.00 Ry     beta= 0.70
     Davidson diagonalization with overlap
     ethr =  4.51E-04,  avg # of iterations =  5.4

     negative rho (up, down):  1.007E-03 0.000E+00

     total cpu time spent up to now is        8.5 secs

     total energy              =    -448.62455849 Ry
     estimated scf accuracy    <       2.00938253 Ry

     iteration # 12     ecut=    64.00 Ry     beta= 0.70
     Davidson diagonalization with overlap
     ethr =  4.51E-04,  avg # of iterations =  1.3

     negative rho (up, down):  1.017E-03 0.000E+00

     total cpu time spent up to now is        9.1 secs

     total energy              =    -448.61869923 Ry
     estimated scf accuracy    <       1.05821032 Ry

     iteration # 13     ecut=    64.00 Ry     beta= 0.70
     Davidson diagonalization with overlap
     ethr =  4.51E-04,  avg # of iterations =  1.2

     negative rho (up, down):  9.687E-04 0.000E+00

     total cpu time spent up to now is        9.6 secs

     total energy              =    -448.58498887 Ry
     estimated scf accuracy    <       0.69393146 Ry

     iteration # 14     ecut=    64.00 Ry     beta= 0.70
     Davidson diagonalization with overlap
     ethr =  4.51E-04,  avg # of iterations =  2.5

     negative rho (up, down):  9.215E-04 0.000E+00

     total cpu time spent up to now is       10.2 secs

     total energy              =    -448.57007044 Ry
     estimated scf accuracy    <       0.21131863 Ry

     iteration # 15     ecut=    64.00 Ry     beta= 0.70
     Davidson diagonalization with overlap
     ethr =  4.51E-04,  avg # of iterations =  2.0

     negative rho (up, down):  8.777E-04 0.000E+00

     total cpu time spent up to now is       10.8 secs

     total energy              =    -448.57646301 Ry
     estimated scf accuracy    <       0.01566476 Ry

     iteration # 16     ecut=    64.00 Ry     beta= 0.70
     Davidson diagonalization with overlap
     ethr =  5.59E-05,  avg # of iterations =  3.7

     negative rho (up, down):  8.707E-04 0.000E+00

     total cpu time spent up to now is       11.5 secs

     total energy              =    -448.57944204 Ry
     estimated scf accuracy    <       0.00143655 Ry

     iteration # 17     ecut=    64.00 Ry     beta= 0.70
     Davidson diagonalization with overlap
     ethr =  5.13E-06,  avg # of iterations =  4.0

     negative rho (up, down):  8.744E-04 0.000E+00

     total cpu time spent up to now is       12.2 secs

     total energy              =    -448.57971603 Ry
     estimated scf accuracy    <       0.00219770 Ry

     iteration # 18     ecut=    64.00 Ry     beta= 0.70
     Davidson diagonalization with overlap
     ethr =  5.13E-06,  avg # of iterations =  1.4

     negative rho (up, down):  8.654E-04 0.000E+00

     total cpu time spent up to now is       12.8 secs

     total energy              =    -448.57919672 Ry
     estimated scf accuracy    <       0.00163058 Ry

     iteration # 19     ecut=    64.00 Ry     beta= 0.70
     Davidson diagonalization with overlap
     ethr =  5.13E-06,  avg # of iterations =  2.4

     negative rho (up, down):  8.714E-04 0.000E+00

     total cpu time spent up to now is       13.4 secs

     total energy              =    -448.57943128 Ry
     estimated scf accuracy    <       0.00110345 Ry

     iteration # 20     ecut=    64.00 Ry     beta= 0.70
     Davidson diagonalization with overlap
     ethr =  3.94E-06,  avg # of iterations =  1.0

     negative rho (up, down):  8.753E-04 0.000E+00

     total cpu time spent up to now is       14.0 secs

     total energy              =    -448.57942117 Ry
     estimated scf accuracy    <       0.00025601 Ry

     iteration # 21     ecut=    64.00 Ry     beta= 0.70
     Davidson diagonalization with overlap
     ethr =  9.14E-07,  avg # of iterations =  2.6

     negative rho (up, down):  8.763E-04 0.000E+00

     total cpu time spent up to now is       14.6 secs

     total energy              =    -448.57944040 Ry
     estimated scf accuracy    <       0.00000522 Ry

     iteration # 22     ecut=    64.00 Ry     beta= 0.70
     Davidson diagonalization with overlap
     ethr =  1.86E-08,  avg # of iterations =  4.6

     negative rho (up, down):  8.762E-04 0.000E+00

     total cpu time spent up to now is       15.4 secs

     total energy              =    -448.57944408 Ry
     estimated scf accuracy    <       0.00000247 Ry

     iteration # 23     ecut=    64.00 Ry     beta= 0.70
     Davidson diagonalization with overlap
     ethr =  8.83E-09,  avg # of iterations =  2.0

     negative rho (up, down):  8.763E-04 0.000E+00

     total cpu time spent up to now is       16.0 secs

     total energy              =    -448.57944434 Ry
     estimated scf accuracy    <       0.00000007 Ry

     iteration # 24     ecut=    64.00 Ry     beta= 0.70
     Davidson diagonalization with overlap
     ethr =  2.60E-10,  avg # of iterations =  4.7

     negative rho (up, down):  8.763E-04 0.000E+00

     total cpu time spent up to now is       16.9 secs

     total energy              =    -448.57944434 Ry
     estimated scf accuracy    <       0.00000028 Ry

     iteration # 25     ecut=    64.00 Ry     beta= 0.70
     Davidson diagonalization with overlap
     ethr =  2.60E-10,  avg # of iterations =  3.0

     negative rho (up, down):  8.762E-04 0.000E+00

     total cpu time spent up to now is       17.5 secs

     End of self-consistent calculation

          k = 0.0000 0.0000 0.0000 (  1419 PWs)   bands (ev):

   -69.2237 -39.1443 -35.2757 -35.2757 -35.2757 -15.2381 -15.2381 -15.2381
    10.1555  13.8613  13.8613  16.6506  16.6506  16.6506  18.9975  18.9975
    20.9413  20.9413

          k = 0.0000 0.0000 0.0833 (  1450 PWs)   bands (ev):

   -69.2237 -39.1425 -35.2784 -35.2759 -35.2759 -15.2628 -15.2366 -15.2366
    10.3011  13.9312  13.9373  16.6397  16.6397  16.6824  18.9087  19.0311
    20.7287  20.7287

          k = 0.0000 0.0000 0.1667 (  1450 PWs)   bands (ev):

   -69.2230 -39.1376 -35.2842 -35.2749 -35.2749 -15.3300 -15.2326 -15.2326
    10.7259  14.1366  14.1397  16.6137  16.6137  16.7726  18.6506  19.1118
    20.2164  20.2164

          k = 0.0000 0.0000 0.2500 (  1446 PWs)   bands (ev):

   -69.2222 -39.1309 -35.2923 -35.2735 -35.2735 -15.4207 -15.2271 -15.2271
    11.3935  14.3909  14.4635  16.5880  16.5880  16.9045  18.2493  19.1667
    19.6194  19.6194

          k = 0.0000 0.0000 0.3333 (  1458 PWs)   bands (ev):

   -69.2214 -39.1243 -35.3005 -35.2724 -35.2724 -15.5103 -15.2216 -15.2216
    12.2390  14.5599  14.8811  16.5772  16.5772  17.0491  17.7543  19.0625
    19.0909  19.0909

          k = 0.0000 0.0000 0.4167 (  1466 PWs)   bands (ev):

   -69.2208 -39.1194 -35.3063 -35.2717 -35.2717 -15.5752 -15.2175 -15.2175
    13.1521  14.4729  15.3152  16.5824  16.5824  17.1653  17.2619  18.7279
    18.7279  18.7698

          k = 0.0000 0.0000-0.5000 (  1462 PWs)   bands (ev):

   -69.2205 -39.1176 -35.3081 -35.2714 -35.2714 -15.5988 -15.2161 -15.2161
    13.8529  14.0963  15.5443  16.5881  16.5881  17.0111  17.2104  18.5964
    18.5977  18.5977

          k = 0.0000 0.0833 0.0833 (  1456 PWs)   bands (ev):

   -69.2235 -39.1406 -35.2792 -35.2771 -35.2757 -15.2639 -15.2585 -15.2351
    10.4443  13.9992  14.0127  16.5705  16.6233  16.7647  18.8938  19.0062
    20.4894  20.5159

          k = 0.0000 0.0833 0.1667 (  1457 PWs)   bands (ev):

   -69.2229 -39.1355 -35.2847 -35.2771 -35.2748 -15.3280 -15.2563 -15.2309
    10.8614  14.1881  14.2235  16.5009  16.5820  16.8712  18.6897  19.0756
    20.0116  20.0263

          k = 0.0000 0.0833 0.2500 (  1468 PWs)   bands (ev):

   -69.2220 -39.1285 -35.2931 -35.2764 -35.2736 -15.4179 -15.2502 -15.2252
    11.5148  14.4437  14.5285  16.4573  16.5332  16.9649  18.3387  19.1177
    19.4788  19.5341

          k = 0.0000 0.0833 0.3333 (  1480 PWs)   bands (ev):

   -69.2212 -39.1214 -35.3015 -35.2757 -35.2725 -15.5068 -15.2440 -15.2195
    12.3379  14.6098  14.9174  16.4506  16.4896  17.0098  17.9130  18.8123
    19.1498  19.2586

          k = 0.0000 0.0833 0.4167 (  1474 PWs)   bands (ev):

   -69.2206 -39.1163 -35.3071 -35.2751 -35.2715 -15.5711 -15.2395 -15.2153
    13.2196  14.5129  15.3208  16.4398  16.4768  16.9902  17.5289  18.4678
    18.9394  19.0696

          k = 0.0000 0.0833-0.5000 (  1472 PWs)   bands (ev):

   -69.2203 -39.1144 -35.3092 -35.2747 -35.2713 -15.5945 -15.2378 -15.2137
    13.8803  14.1536  15.5325  16.3894  16.4979  16.9641  17.3701  18.3275
    18.8803  18.9522

          k = 0.0000 0.1667 0.1667 (  1460 PWs)   bands (ev):

   -69.2222 -39.1297 -35.2871 -35.2811 -35.2740 -15.3297 -15.3137 -15.2263
    11.2538  14.3271  14.4569  16.3519  16.5049  16.9661  18.7148  19.0371
    19.5401  19.6896

          k = 0.0000 0.1667 0.2500 (  1473 PWs)   bands (ev):

   -69.2214 -39.1217 -35.2946 -35.2830 -35.2729 -15.4106 -15.3126 -15.2200
    11.8603  14.5075  14.7835  16.2414  16.4198  16.9563  18.5443  18.9585
    19.2111  19.4340

          k = 0.0000 0.1667 0.3333 (  1480 PWs)   bands (ev):

   -69.2206 -39.1137 -35.3031 -35.2835 -35.2717 -15.4971 -15.3049 -15.2137
    12.6057  14.6196  15.1402  16.1945  16.3647  16.8219  18.2548  18.5853
    19.3061  19.3497

          k = 0.0000 0.1667 0.4167 (  1478 PWs)   bands (ev):

   -69.2200 -39.1079 -35.3091 -35.2838 -35.2709 -15.5599 -15.2991 -15.2091
    13.3720  14.5124  15.4614  16.2201  16.3576  16.6286  18.0063  18.3136
    19.3249  19.3913

          k = 0.0000 0.1667-0.5000 (  1484 PWs)   bands (ev):

   -69.2198 -39.1058 -35.3114 -35.2839 -35.2708 -15.5828 -15.2970 -15.2074
    13.8901  14.2383  15.6100  16.2674  16.3604  16.5140  17.9417  18.1696
    19.3006  19.4314

          k = 0.0000 0.2500 0.2500 (  1480 PWs)   bands (ev):

   -69.2206 -39.1124 -35.2983 -35.2904 -35.2719 -15.4094 -15.3883 -15.2129
    12.3730  14.5467  15.1634  16.0560  16.3380  16.7825  18.6748  18.7364
    19.0906  19.4806

          k = 0.0000 0.2500 0.3333 (  1476 PWs)   bands (ev):

   -69.2197 -39.1032 -35.3055 -35.2939 -35.2707 -15.4841 -15.3870 -15.2058
    12.9570  14.5095  15.5685  15.9444  16.3736  16.5105  18.4618  18.6591
    19.2338  19.6616

          k = 0.0000 0.2500 0.4167 (  1487 PWs)   bands (ev):

   -69.2191 -39.0964 -35.3119 -35.2958 -35.2701 -15.5446 -15.3797 -15.2006
    13.4883  14.3611  15.8638  15.9286  16.2446  16.5853  18.2278  18.5747
    19.4239  19.8827

          k = 0.0000 0.2500-0.5000 (  1498 PWs)   bands (ev):

   -69.2190 -39.0939 -35.3145 -35.2965 -35.2700 -15.5667 -15.3770 -15.1987
    13.7744  14.2082  15.9626  15.9820  16.0892  16.7595  18.0981  18.5271
    19.5130  19.9994

          k = 0.0000 0.3333 0.3333 (  1498 PWs)   bands (ev):

   -69.2190 -39.0926 -35.3095 -35.3034 -35.2702 -15.4775 -15.4619 -15.1979
    13.2782  14.3386  15.7655  16.0780  16.1805  16.5937  18.4961  18.9523
    19.1268  20.0074

          k = 0.0000 0.3333 0.4167 (  1489 PWs)   bands (ev):

   -69.2183 -39.0848 -35.3148 -35.3073 -35.2693 -15.5293 -15.4595 -15.1922
    13.4965  14.1702  15.6914  15.9105  16.4645  17.0654  18.3651  19.0019
    19.3166  20.3171

          k = 0.0000 0.3333-0.5000 (  1482 PWs)   bands (ev):

   -69.2180 -39.0819 -35.3173 -35.3082 -35.2688 -15.5506 -15.4561 -15.1900
    13.5810  14.0908  15.7221  15.7591  16.5867  17.4946  18.0781  19.0367
    19.4659  20.4791

          k = 0.0000 0.4167 0.4167 (  1488 PWs)   bands (ev):

   -69.2177 -39.0763 -35.3174 -35.3154 -35.2685 -15.5203 -15.5151 -15.1859
    13.4479  14.0334  15.5571  15.6697  17.0914  17.5699  18.6095  19.0103
    19.3176  20.6405

          k = 0.0000 0.4167-0.5000 (  1488 PWs)   bands (ev):

   -69.2174 -39.0731 -35.3196 -35.3171 -35.2681 -15.5388 -15.5135 -15.1836
    13.4214  13.9853  15.5445  15.5521  17.3260  18.0951  18.3028  19.1127
    19.3648  20.8001

          k = 0.0000-0.5000-0.5000 (  1492 PWs)   bands (ev):

   -69.2172 -39.0699 -35.3205 -35.3205 -35.2679 -15.5344 -15.5344 -15.1813
    13.3616  13.9452  15.4817  15.4817  17.7570  18.1877  18.7303  18.7303
    19.4428  20.9132

          k = 0.0833 0.0833 0.0833 (  1457 PWs)   bands (ev):

   -69.2232 -39.1387 -35.2789 -35.2789 -35.2760 -15.2644 -15.2570 -15.2570
    10.5853  14.0767  14.0767  16.5526  16.5526  16.8343  18.9364  18.9364
    20.1211  20.7113

          k = 0.0833 0.0833 0.1667 (  1456 PWs)   bands (ev):

   -69.2226 -39.1333 -35.2848 -35.2779 -35.2759 -15.3261 -15.2561 -15.2529
    10.9957  14.2640  14.2822  16.4572  16.5047  16.9230  18.7338  19.0403
    19.6653  20.1960

          k = 0.0833 0.0833 0.2500 (  1470 PWs)   bands (ev):

   -69.2218 -39.1260 -35.2934 -35.2768 -35.2756 -15.4152 -15.2492 -15.2473
    11.6366  14.5322  14.5590  16.3972  16.4392  16.9588  18.4214  19.0688
    19.3479  19.6043

          k = 0.0833 0.0833 0.3333 (  1482 PWs)   bands (ev):

   -69.2210 -39.1186 -35.3020 -35.2756 -35.2753 -15.5033 -15.2421 -15.2417
    12.4397  14.6851  14.9294  16.3615  16.3994  16.9196  18.0501  18.8220
    19.0913  19.3624

          k = 0.0833 0.0833 0.4167 (  1475 PWs)   bands (ev):

   -69.2203 -39.1133 -35.3077 -35.2749 -35.2746 -15.5672 -15.2376 -15.2370
    13.2933  14.5709  15.3060  16.2601  16.4766  16.8450  17.7210  18.5375
    18.7481  19.4128

          k = 0.0833 0.0833-0.5000 (  1470 PWs)   bands (ev):

   -69.2201 -39.1113 -35.3098 -35.2747 -35.2742 -15.5904 -15.2360 -15.2351
    13.9207  14.2204  15.5041  16.1809  16.5491  16.7971  17.5836  18.3843
    18.6273  19.4428

          k = 0.0833 0.1667 0.1667 (  1466 PWs)   bands (ev):

   -69.2220 -39.1273 -35.2869 -35.2820 -35.2761 -15.3272 -15.3122 -15.2495
    11.3842  14.4123  14.5034  16.3222  16.4139  16.9423  18.7724  19.0066
    19.3358  19.9304

          k = 0.0833 0.1667 0.2500 (  1477 PWs)   bands (ev):

   -69.2212 -39.1191 -35.2946 -35.2832 -35.2755 -15.4079 -15.3106 -15.2429
    11.9831  14.6036  14.8090  16.2055  16.3230  16.8391  18.6149  18.9909
    19.2375  19.5087

          k = 0.0833 0.1667 0.3333 (  1485 PWs)   bands (ev):

   -69.2204 -39.1110 -35.3034 -35.2835 -35.2748 -15.4939 -15.3028 -15.2361
    12.7157  14.7274  15.1216  16.1394  16.2730  16.6733  18.3690  18.7041
    19.1745  19.5296

          k = 0.0833 0.1667 0.4167 (  1481 PWs)   bands (ev):

   -69.2197 -39.1050 -35.3096 -35.2835 -35.2741 -15.5564 -15.2970 -15.2312
    13.4638  14.6080  15.3995  16.0732  16.3494  16.5507  18.1463  18.3963
    18.9603  19.8395

          k = 0.0833 0.1667-0.5000 (  1484 PWs)   bands (ev):

   -69.2195 -39.1028 -35.3118 -35.2837 -35.2739 -15.5791 -15.2948 -15.2293
    13.9645  14.3288  15.5355  16.0246  16.4479  16.4914  18.0708  18.2307
    18.8562  20.0270

          k = 0.0833 0.2500 0.2500 (  1482 PWs)   bands (ev):

   -69.2204 -39.1098 -35.2979 -35.2907 -35.2749 -15.4062 -15.3867 -15.2356
    12.4966  14.6483  15.1812  16.0227  16.2364  16.5994  18.7315  18.9304
    19.0802  19.5596

          k = 0.0833 0.2500 0.3333 (  1479 PWs)   bands (ev):

   -69.2195 -39.1004 -35.3054 -35.2939 -35.2738 -15.4813 -15.3850 -15.2282
    13.0781  14.6160  15.5495  15.9079  16.2634  16.3623  18.5739  18.7390
    19.1787  19.8338

          k = 0.0833 0.2500 0.4167 (  1486 PWs)   bands (ev):

   -69.2189 -39.0936 -35.3121 -35.2954 -35.2732 -15.5417 -15.3777 -15.2228
    13.6000  14.4664  15.7528  15.8752  16.1995  16.5152  18.2947  18.6559
    19.1427  20.2625

          k = 0.0833 0.2500-0.5000 (  1490 PWs)   bands (ev):

   -69.2187 -39.0911 -35.3146 -35.2960 -35.2729 -15.5637 -15.3750 -15.2208
    13.8762  14.3148  15.7881  15.8907  16.1436  16.7213  18.1274  18.6263
    19.0844  20.5753

          k = 0.0833 0.3333 0.3333 (  1479 PWs)   bands (ev):

   -69.2187 -39.0899 -35.3088 -35.3033 -35.2728 -15.4746 -15.4602 -15.2203
    13.4039  14.4434  15.7368  16.0580  16.0678  16.4596  18.5161  19.0473
    19.0665  20.2214

          k = 0.0833 0.3333 0.4167 (  1488 PWs)   bands (ev):

   -69.2181 -39.0821 -35.3147 -35.3071 -35.2722 -15.5270 -15.4576 -15.2145
    13.6152  14.2764  15.6614  15.8367  16.4226  16.9324  18.3537  19.0070
    19.1782  20.6482

          k = 0.0833 0.3333-0.5000 (  1486 PWs)   bands (ev):

   -69.2178 -39.0793 -35.3173 -35.3079 -35.2719 -15.5483 -15.4543 -15.2123
    13.6928  14.2000  15.6835  15.7076  16.5309  17.3486  18.0876  19.0914
    19.1239  20.7566

          k = 0.0833 0.4167 0.4167 (  1476 PWs)   bands (ev):

   -69.2174 -39.0737 -35.3169 -35.3150 -35.2712 -15.5182 -15.5135 -15.2083
    13.5646  14.1412  15.5360  15.6341  17.0367  17.4198  18.4821  18.7977
    19.3838  20.8722

          k = 0.0833 0.4167-0.5000 (  1488 PWs)   bands (ev):

   -69.2172 -39.0707 -35.3193 -35.3168 -35.2711 -15.5370 -15.5119 -15.2061
    13.5364  14.0938  15.5225  15.5282  17.2622  18.0271  18.0865  18.7887
    19.4367  20.9479

          k = 0.0833-0.5000-0.5000 (  1488 PWs)   bands (ev):

   -69.2170 -39.0675 -35.3200 -35.3200 -35.2709 -15.5328 -15.5328 -15.2038
    13.4774  14.0534  15.4639  15.4639  17.7596  18.1888  18.3461  18.3461
    19.5149  21.3953

          k = 0.1667 0.1667 0.1667 (  1466 PWs)   bands (ev):

   -69.2214 -39.1209 -35.2859 -35.2859 -35.2796 -15.3248 -15.3079 -15.3079
    11.7598  14.6374  14.6374  16.2412  16.2412  16.7907  18.9176  18.9176
    19.2490  20.1531

          k = 0.1667 0.1667 0.2500 (  1480 PWs)   bands (ev):

   -69.2206 -39.1121 -35.2947 -35.2847 -35.2815 -15.4007 -15.3077 -15.3021
    12.3325  14.8412  14.9001  16.1068  16.1281  16.5322  18.7804  19.0195
    19.4063  19.5734

          k = 0.1667 0.1667 0.3333 (  1482 PWs)   bands (ev):

   -69.2198 -39.1034 -35.3040 -35.2835 -35.2824 -15.4853 -15.2977 -15.2963
    13.0176  15.0000  15.0835  16.0016  16.0889  16.3642  18.6219  18.8631
    19.0818  19.8207

          k = 0.1667 0.1667 0.4167 (  1483 PWs)   bands (ev):

   -69.2191 -39.0969 -35.3108 -35.2831 -35.2824 -15.5468 -15.2920 -15.2902
    13.6915  14.7938  15.3144  15.8754  16.2063  16.4032  18.4876  18.4976
    18.7589  20.3469

          k = 0.1667 0.1667-0.5000 (  1472 PWs)   bands (ev):

   -69.2189 -39.0946 -35.3130 -35.2832 -35.2819 -15.5692 -15.2905 -15.2875
    14.1181  14.5146  15.4321  15.8011  16.2696  16.5015  18.2685  18.4327
    18.6478  20.5328

          k = 0.1667 0.2500 0.2500 (  1482 PWs)   bands (ev):

   -69.2198 -39.1026 -35.2969 -35.2917 -35.2825 -15.3974 -15.3823 -15.2970
    12.8473  14.9276  15.2294  15.9339  16.0119  16.1954  18.8574  19.0377
    19.3500  19.7801

          k = 0.1667 0.2500 0.3333 (  1480 PWs)   bands (ev):

   -69.2189 -39.0930 -35.3052 -35.2939 -35.2821 -15.4736 -15.3793 -15.2890
    13.4182  14.9091  15.4742  15.8158  16.0073  16.0648  18.7120  18.9106
    19.1661  20.2299

          k = 0.1667 0.2500 0.4167 (  1489 PWs)   bands (ev):

   -69.2183 -39.0859 -35.3125 -35.2946 -35.2818 -15.5337 -15.3723 -15.2831
    13.9048  14.7367  15.5207  15.7405  16.0608  16.3587  18.3961  18.7572
    18.9887  20.5293

          k = 0.1667 0.2500-0.5000 (  1482 PWs)   bands (ev):

   -69.2181 -39.0834 -35.3150 -35.2949 -35.2815 -15.5556 -15.3697 -15.2809
    14.1481  14.5787  15.5374  15.7104  16.0939  16.5957  18.1661  18.6998
    18.9171  20.6075

          k = 0.1667 0.3333 0.3333 (  1483 PWs)   bands (ev):

   -69.2181 -39.0825 -35.3077 -35.3035 -35.2814 -15.4668 -15.4558 -15.2810
    13.7647  14.7257  15.6623  15.8152  15.9948  16.1273  18.5614  18.8863
    19.3206  20.4204

          k = 0.1667 0.3333 0.4167 (  1490 PWs)   bands (ev):

   -69.2175 -39.0749 -35.3142 -35.3063 -35.2808 -15.5207 -15.4525 -15.2751
    13.9548  14.5588  15.5857  15.6728  16.2651  16.6172  18.3418  18.7115
    19.3808  20.6367

          k = 0.1667 0.3333-0.5000 (  1486 PWs)   bands (ev):

   -69.2172 -39.0721 -35.3169 -35.3068 -35.2805 -15.5420 -15.4495 -15.2729
    14.0110  14.4890  15.5861  15.5943  16.3515  16.9956  18.0903  18.6575
    19.3787  20.7433

          k = 0.1667 0.4167 0.4167 (  1481 PWs)   bands (ev):

   -69.2168 -39.0668 -35.3156 -35.3143 -35.2799 -15.5127 -15.5091 -15.2692
    13.9007  14.4322  15.4832  15.5510  16.8525  16.9894  18.3468  18.4192
    19.6073  20.8658

          k = 0.1667 0.4167-0.5000 (  1486 PWs)   bands (ev):

   -69.2166 -39.0638 -35.3183 -35.3155 -35.2796 -15.5321 -15.5074 -15.2671
    13.8679  14.3880  15.4699  15.4702  17.0210  17.4488  18.0306  18.3951
    19.6607  21.0087

          k = 0.1667-0.5000-0.5000 (  1492 PWs)   bands (ev):

   -69.2164 -39.0608 -35.3188 -35.3188 -35.2794 -15.5284 -15.5284 -15.2649
    13.8121  14.3485  15.4202  15.4202  17.6417  17.6417  17.7667  18.1834
    19.7350  21.2049

          k = 0.2500 0.2500 0.2500 (  1469 PWs)   bands (ev):

   -69.2188 -39.0927 -35.2953 -35.2953 -35.2903 -15.3892 -15.3763 -15.3763
    13.3579  15.2932  15.2932  15.7693  15.8175  15.8175  18.9326  18.9326
    19.7449  19.7449

          k = 0.2500 0.2500 0.3333 (  1480 PWs)   bands (ev):

   -69.2181 -39.0828 -35.3050 -35.2940 -35.2929 -15.4633 -15.3723 -15.3703
    13.8934  15.2539  15.3545  15.7050  15.7636  15.8377  18.7580  18.7694
    19.4878  20.1516

          k = 0.2500 0.2500 0.4167 (  1490 PWs)   bands (ev):

   -69.2175 -39.0755 -35.3130 -35.2941 -35.2930 -15.5229 -15.3659 -15.3635
    14.2789  14.9566  15.3987  15.6226  15.8890  16.2381  18.3847  18.5998
    19.3736  20.5077

          k = 0.2500 0.2500-0.5000 (  1488 PWs)   bands (ev):

   -69.2172 -39.0728 -35.3158 -35.2943 -35.2927 -15.5446 -15.3643 -15.3603
    14.4327  14.8086  15.4159  15.5910  15.9712  16.4887  18.1236  18.5400
    19.3411  20.6412

          k = 0.2500 0.3333 0.3333 (  1481 PWs)   bands (ev):

   -69.2172 -39.0725 -35.3062 -35.3038 -35.2928 -15.4561 -15.4497 -15.3632
    14.3053  15.0581  15.5709  15.5990  15.7502  15.8863  18.5634  18.6430
    19.7338  20.2773

          k = 0.2500 0.3333 0.4167 (  1481 PWs)   bands (ev):

   -69.2166 -39.0650 -35.3134 -35.3051 -35.2922 -15.5121 -15.4455 -15.3572
    14.4542  14.8907  15.4970  15.5541  15.9676  16.3073  18.2836  18.4698
    19.7727  20.6180

          k = 0.2500 0.3333-0.5000 (  1490 PWs)   bands (ev):

   -69.2164 -39.0622 -35.3165 -35.3054 -35.2920 -15.5335 -15.4428 -15.3549
    14.4660  14.8328  15.4763  15.5222  16.0751  16.6039  18.0424  18.4242
    19.7734  20.7751

          k = 0.2500 0.4167 0.4167 (  1480 PWs)   bands (ev):

   -69.2160 -39.0573 -35.3140 -35.3133 -35.2913 -15.5051 -15.5030 -15.3516
    14.4087  14.8077  15.4257  15.4875  16.4589  16.5325  18.1504  18.2689
    19.9863  20.8905

          k = 0.2500 0.4167-0.5000 (  1486 PWs)   bands (ev):

   -69.2158 -39.0545 -35.3169 -35.3139 -35.2911 -15.5254 -15.5012 -15.3496
    14.3703  14.7753  15.4157  15.4232  16.5936  16.8467  17.9342  18.2347
    20.0360  21.0515

          k = 0.2500-0.5000-0.5000 (  1460 PWs)   bands (ev):

   -69.2154 -39.0516 -35.3166 -35.3166 -35.2904 -15.5224 -15.5224 -15.3476
    14.3248  14.7481  15.3769  15.3769  16.9578  16.9578  17.7766  18.1467
    20.1055  21.2254

          k = 0.3333 0.3333 0.3333 (  1463 PWs)   bands (ev):

   -69.2163 -39.0625 -35.3043 -35.3043 -35.3034 -15.4462 -15.4437 -15.4437
    14.8468  15.1248  15.4970  15.4970  15.7460  15.7460  18.4353  18.4353
    20.2322  20.2322

          k = 0.3333 0.3333 0.4167 (  1484 PWs)   bands (ev):

   -69.2158 -39.0551 -35.3128 -35.3043 -35.3035 -15.5035 -15.4392 -15.4375
    14.8877  15.0874  15.4702  15.6074  15.7075  16.1078  18.1622  18.3108
    20.2255  20.6829

          k = 0.3333 0.3333-0.5000 (  1490 PWs)   bands (ev):

   -69.2156 -39.0524 -35.3161 -35.3043 -35.3032 -15.5250 -15.4376 -15.4346
    14.8411  15.0402  15.5017  15.5138  15.8630  16.3515  17.9701  18.2709
    20.2262  20.8697

          k = 0.3333 0.4167 0.4167 (  1482 PWs)   bands (ev):

   -69.2152 -39.0478 -35.3124 -35.3123 -35.3029 -15.4975 -15.4970 -15.4331
    14.9361  15.1495  15.3984  15.5571  15.9942  16.1587  18.0186  18.1506
    20.4785  20.9225

          k = 0.3333 0.4167-0.5000 (  1478 PWs)   bands (ev):

   -69.2149 -39.0451 -35.3156 -35.3121 -35.3025 -15.5187 -15.4950 -15.4312
    14.9309  15.1076  15.4364  15.4412  16.1353  16.3433  17.8800  18.1097
    20.5221  21.0908

          k = 0.3333-0.5000-0.5000 (  1488 PWs)   bands (ev):

   -69.2147 -39.0425 -35.3155 -35.3155 -35.3022 -15.5164 -15.5164 -15.4294
    14.9344  15.1381  15.3682  15.3682  16.3842  16.3842  17.7864  18.0482
    20.5923  21.2461

          k = 0.4167 0.4167 0.4167 (  1484 PWs)   bands (ev):

   -69.2146 -39.0408 -35.3116 -35.3114 -35.3114 -15.4926 -15.4926 -15.4917
    15.1333  15.4326  15.4326  15.7444  15.8329  15.8329  17.9645  17.9645
    20.9472  20.9472

          k = 0.4167 0.4167-0.5000 (  1488 PWs)   bands (ev):

   -69.2143 -39.0382 -35.3146 -35.3113 -35.3110 -15.5138 -15.4909 -15.4899
    15.2668  15.2822  15.5065  15.6539  15.8116  16.0276  17.8463  17.9501
    20.9564  21.1510

          k = 0.4167-0.5000-0.5000 (  1488 PWs)   bands (ev):

   -69.2141 -39.0357 -35.3141 -35.3141 -35.3110 -15.5120 -15.5120 -15.4888
    15.4137  15.4251  15.4251  15.4913  15.9546  15.9546  17.7936  17.8915
    21.0609  21.2612

          k =-0.5000-0.5000-0.5000 (  1472 PWs)   bands (ev):

   -69.2138 -39.0333 -35.3135 -35.3135 -35.3135 -15.5104 -15.5104 -15.5104
    15.5119  15.5119  15.5119  15.7396  15.7396  15.7396  17.7962  17.7962
    21.2668  21.2668

     the Fermi energy is    17.6485 ev

!    total energy              =    -448.57944435 Ry
     estimated scf accuracy    <          6.3E-09 Ry
     smearing contrib. (-TS)   =       0.00002428 Ry
     internal energy E=F+TS    =    -448.57946863 Ry

     The total energy is F=E-TS. E is the sum of the following terms:
     one-electron contribution =    -151.32649658 Ry
     hartree contribution      =      91.60725449 Ry
     xc contribution           =     -52.88706821 Ry
     ewald contribution        =    -259.82070277 Ry
     one-center paw contrib.   =     -76.15245556 Ry

     convergence has been achieved in  25 iterations

     negative rho (up, down):  8.762E-04 0.000E+00

     Forces acting on atoms (cartesian axes, Ry/au):

     atom    1 type  1   force =     0.00000000    0.00000000    0.00000000
     atom    2 type  2   force =     0.00000000    0.00000000    0.00000000

     Total force =     0.000000     Total SCF correction =     0.000000


     Computing stress (Cartesian axis) and pressure


     negative rho (up, down):  8.762E-04 0.000E+00
          total   stress  (Ry/bohr**3)                   (kbar)     P=       22.11
   0.00015030   0.00000000   0.00000000           22.11        0.00        0.00
   0.00000000   0.00015030   0.00000000            0.00       22.11        0.00
   0.00000000   0.00000000   0.00015030            0.00        0.00       22.11


     Writing all to output data dir ./TiFe.save/ :
     XML data file, charge density, pseudopotentials, collected wavefunctions

     init_run     :      0.74s CPU      0.78s WALL (       1 calls)
     electrons    :     15.97s CPU     16.59s WALL (       1 calls)
     forces       :      0.10s CPU      0.10s WALL (       1 calls)
     stress       :      0.48s CPU      0.49s WALL (       1 calls)

     Called by init_run:
     wfcinit      :      0.20s CPU      0.21s WALL (       1 calls)
     potinit      :      0.22s CPU      0.23s WALL (       1 calls)
     hinit0       :      0.24s CPU      0.24s WALL (       1 calls)

     Called by electrons:
     c_bands      :     10.61s CPU     11.02s WALL (      25 calls)
     sum_band     :      2.88s CPU      2.98s WALL (      25 calls)
     v_of_rho     :      0.16s CPU      0.17s WALL (      26 calls)
     newd         :      1.06s CPU      1.07s WALL (      26 calls)
     PAW_pot      :      1.32s CPU      1.34s WALL (      26 calls)
     mix_rho      :      0.02s CPU      0.02s WALL (      25 calls)

     Called by c_bands:
     init_us_2    :      0.24s CPU      0.25s WALL (    4452 calls)
     cegterg      :     10.16s CPU     10.56s WALL (    2100 calls)

     Called by *egterg:
     cdiaghg      :      2.04s CPU      2.12s WALL (    7571 calls)
     h_psi        :      7.09s CPU      7.38s WALL (    7655 calls)
     s_psi        :      0.18s CPU      0.19s WALL (    7655 calls)
     g_psi        :      0.04s CPU      0.04s WALL (    5471 calls)

     Called by h_psi:
     h_psi:calbec :      0.35s CPU      0.36s WALL (    7655 calls)
     vloc_psi     :      6.49s CPU      6.76s WALL (    7655 calls)
     add_vuspsi   :      0.21s CPU      0.22s WALL (    7655 calls)

     General routines
     calbec       :      0.50s CPU      0.53s WALL (   11183 calls)
     fft          :      0.24s CPU      0.25s WALL (     361 calls)
     ffts         :      0.15s CPU      0.15s WALL (      51 calls)
     fftw         :      6.00s CPU      6.24s WALL (  224828 calls)
     interpolate  :      0.16s CPU      0.16s WALL (      26 calls)

     Parallel routines

     PWSCF        :     17.54s CPU     20.01s WALL


   This run was terminated on:  22:20:26  27Oct2025            

=------------------------------------------------------------------------------=
   JOB DONE.
=------------------------------------------------------------------------------=
Note: The following floating-point exceptions are signalling: IEEE_UNDERFLOW_FLAG IEEE_DENORMAL
Note: The following floating-point exceptions are signalling: IEEE_UNDERFLOW_FLAG IEEE_DENORMAL
Note: The following floating-point exceptions are signalling: IEEE_UNDERFLOW_FLAG IEEE_DENORMAL
Note: The following floating-point exceptions are signalling: IEEE_UNDERFLOW_FLAG IEEE_DENORMAL
Note: The following floating-point exceptions are signalling: IEEE_UNDERFLOW_FLAG IEEE_DENORMAL
Note: The following floating-point exceptions are signalling: IEEE_UNDERFLOW_FLAG IEEE_DENORMAL
Note: The following floating-point exceptions are signalling: IEEE_UNDERFLOW_FLAG IEEE_DENORMAL
Note: The following floating-point exceptions are signalling: IEEE_UNDERFLOW_FLAG IEEE_DENORMAL
