
     Program PWSCF v.7.4 starts on 27Oct2025 at 21:56:29 

     This program is part of the open-source Quantum ESPRESSO suite
     for quantum simulation of materials; please cite
         "P. Giannozzi et al., J. Phys.:Condens. Matter 21 395502 (2009);
         "P. Giannozzi et al., J. Phys.:Condens. Matter 29 465901 (2017);
         "P. Giannozzi et al., J. Chem. Phys. 152 154105 (2020);
          URL http://www.quantum-espresso.org", 
     in publications or presentations arising from this work. More details at
     http://www.quantum-espresso.org/quote

     Parallel version (MPI & OpenMP), running on       8 processor cores
     Number of MPI processes:                 8
     Threads/MPI process:                     1

     MPI processes distributed on     1 nodes
     183501 MiB available memory on the printing compute node when the environment starts

     Reading input from TiFe_kmesh_convergence/TiFe2_k222.in

     Current dimensions of program PWSCF are:
     Max number of different atomic species (ntypx) = 10
     Max number of k-points (npk) =  40000
     Max angular momentum in pseudopotentials (lmaxx) =  4
     file Fe.pbe-spn-kjpaw_psl.0.2.1.UPF: wavefunction(s)  3D renormalized

     IMPORTANT: XC functional enforced from input :
     Exchange-correlation= PBE
                           (   1   4   3   4   0   0   0)
     Any further DFT definition will be discarded
     Please, verify this is what you really want

     Message from routine setup:
     using ibrav=0 with symmetry is DISCOURAGED, use correct ibrav instead

     R & G space division:  proc/nbgrp/npool/nimage =       8
     Subspace diagonalization in iterative solution of the eigenvalue problem:
     a serial algorithm will be used


     Parallelization info
     --------------------
     sticks:   dense  smooth     PW     G-vecs:    dense   smooth      PW
     Min         239      77     24                 7884     1467     262
     Max         242      78     25                 7885     1470     265
     Sum        1917     621    193                63077    11753    2103

     Using Slab Decomposition



     bravais-lattice index     =            0
     lattice parameter (alat)  =       5.5533  a.u.
     unit-cell volume          =     171.2590 (a.u.)^3
     number of atoms/cell      =            2
     number of atomic types    =            2
     number of electrons       =        28.00
     number of Kohn-Sham states=           18
     kinetic-energy cutoff     =      64.0000  Ry
     charge density cutoff     =     782.0000  Ry
     scf convergence threshold =      1.0E-08
     mixing beta               =       0.7000
     number of iterations used =            8  plain     mixing
     Exchange-correlation= PBE
                           (   1   4   3   4   0   0   0)

     celldm(1)=   5.553300  celldm(2)=   0.000000  celldm(3)=   0.000000
     celldm(4)=   0.000000  celldm(5)=   0.000000  celldm(6)=   0.000000

     crystal axes: (cart. coord. in units of alat)
               a(1) = (   1.000000   0.000000   0.000000 )  
               a(2) = (   0.000000   1.000000   0.000000 )  
               a(3) = (   0.000000   0.000000   1.000000 )  

     reciprocal axes: (cart. coord. in units 2 pi/alat)
               b(1) = (  1.000000  0.000000  0.000000 )  
               b(2) = (  0.000000  1.000000  0.000000 )  
               b(3) = (  0.000000  0.000000  1.000000 )  


     PseudoPot. # 1 for Fe read from file:
     ./Fe.pbe-spn-kjpaw_psl.0.2.1.UPF
     MD5 check sum: e86618425769142926afa95317d90200
     Pseudo is Projector augmented-wave + core cor, Zval = 16.0
     Generated using "atomic" code by A. Dal Corso  v.5.0.99 svn rev. 10869
     Shape of augmentation charge: PSQ
     Using radial grid of 1191 points,  6 beta functions with: 
                l(1) =   0
                l(2) =   0
                l(3) =   1
                l(4) =   1
                l(5) =   2
                l(6) =   2
     Q(r) pseudized with 0 coefficients 


     PseudoPot. # 2 for Ti read from file:
     ./Ti_pbe_v1.4.uspp.F.UPF
     MD5 check sum: 88a00a6731bd790ddea75d31a80cb452
     Pseudo is Ultrasoft + core correction, Zval = 12.0
     Generated by new atomic code, or converted to UPF format
     Using radial grid of  851 points,  6 beta functions with: 
                l(1) =   0
                l(2) =   0
                l(3) =   1
                l(4) =   1
                l(5) =   2
                l(6) =   2
     Q(r) pseudized with  6 coefficients,  rinner =    1.000   1.000   1.000
                                                       1.000   1.000

     atomic species   valence    mass     pseudopotential
     Fe               16.00    55.84500     Fe( 1.00)
     Ti               12.00    47.86700     Ti( 1.00)

     48 Sym. Ops., with inversion, found



   Cartesian axes

     site n.     atom                  positions (alat units)
         1        Fe     tau(   1) = (   0.5000000   0.5000000   0.5000000  )
         2        Ti     tau(   2) = (   0.0000000   0.0000000   0.0000000  )

     number of k points=     4  Marzari-Vanderbilt smearing, width (Ry)=  0.0050
                       cart. coord. in units 2pi/alat
        k(    1) = (   0.0000000   0.0000000   0.0000000), wk =   0.2500000
        k(    2) = (   0.0000000   0.0000000  -0.5000000), wk =   0.7500000
        k(    3) = (   0.0000000  -0.5000000  -0.5000000), wk =   0.7500000
        k(    4) = (  -0.5000000  -0.5000000  -0.5000000), wk =   0.2500000

     Dense  grid:    63077 G-vectors     FFT dimensions: (  50,  50,  50)

     Smooth grid:    11753 G-vectors     FFT dimensions: (  30,  30,  30)

     Estimated max dynamical RAM per process >      33.69 MB

     Estimated total dynamical RAM >     269.55 MB

     Check: negative core charge=   -0.000015

     Initial potential from superposition of free atoms

     starting charge      26.9995, renormalised to      28.0000

     negative rho (up, down):  1.188E-03 0.000E+00
     Starting wfcs are   23 randomized atomic wfcs
     Checking if some PAW data can be deallocated... 

     total cpu time spent up to now is        1.6 secs

     per-process dynamical memory:   140.7 Mb

     Self-consistent Calculation

     iteration #  1     ecut=    64.00 Ry     beta= 0.70
     Davidson diagonalization with overlap
     ethr =  1.00E-02,  avg # of iterations =  2.2

     negative rho (up, down):  2.055E-04 0.000E+00

     total cpu time spent up to now is        1.8 secs

     total energy              =    -436.78353532 Ry
     estimated scf accuracy    <      15.14352878 Ry

     iteration #  2     ecut=    64.00 Ry     beta= 0.70
     Davidson diagonalization with overlap
     ethr =  1.00E-02,  avg # of iterations =  5.0

     negative rho (up, down):  1.203E-04 0.000E+00

     total cpu time spent up to now is        2.0 secs

     total energy              =    -448.77748013 Ry
     estimated scf accuracy    <      58.11260511 Ry

     iteration #  3     ecut=    64.00 Ry     beta= 0.70
     Davidson diagonalization with overlap
     ethr =  1.00E-02,  avg # of iterations =  3.2

     negative rho (up, down):  3.673E-04 0.000E+00

     total cpu time spent up to now is        2.2 secs

     total energy              =    -448.40717497 Ry
     estimated scf accuracy    <      15.39617928 Ry

     iteration #  4     ecut=    64.00 Ry     beta= 0.70
     Davidson diagonalization with overlap
     ethr =  1.00E-02,  avg # of iterations =  2.0

     negative rho (up, down):  3.114E-04 0.000E+00

     total cpu time spent up to now is        2.4 secs

     total energy              =    -448.93259947 Ry
     estimated scf accuracy    <       4.04279385 Ry

     iteration #  5     ecut=    64.00 Ry     beta= 0.70
     Davidson diagonalization with overlap
     ethr =  1.00E-02,  avg # of iterations =  1.0

     negative rho (up, down):  6.156E-04 0.000E+00

     total cpu time spent up to now is        2.6 secs

     total energy              =    -448.26875486 Ry
     estimated scf accuracy    <       3.91856462 Ry

     iteration #  6     ecut=    64.00 Ry     beta= 0.70
     Davidson diagonalization with overlap
     ethr =  1.00E-02,  avg # of iterations =  2.0

     negative rho (up, down):  7.738E-04 0.000E+00

     total cpu time spent up to now is        2.8 secs

     total energy              =    -448.34622029 Ry
     estimated scf accuracy    <       0.83030845 Ry

     iteration #  7     ecut=    64.00 Ry     beta= 0.70
     Davidson diagonalization with overlap
     ethr =  2.97E-03,  avg # of iterations =  3.0

     negative rho (up, down):  7.875E-04 0.000E+00

     total cpu time spent up to now is        3.0 secs

     total energy              =    -448.40823536 Ry
     estimated scf accuracy    <       0.30252618 Ry

     iteration #  8     ecut=    64.00 Ry     beta= 0.70
     Davidson diagonalization with overlap
     ethr =  1.08E-03,  avg # of iterations =  2.0
     Minimization algorithm failed to find Fermi energy: reverting to bisection
     Possible cause: smearing is larger than the electronic band-gap.

     negative rho (up, down):  8.403E-04 0.000E+00

     total cpu time spent up to now is        3.2 secs

     total energy              =    -448.38894286 Ry
     estimated scf accuracy    <       0.48577012 Ry

     iteration #  9     ecut=    64.00 Ry     beta= 0.70
     Davidson diagonalization with overlap
     ethr =  1.08E-03,  avg # of iterations =  2.2

     negative rho (up, down):  8.428E-04 0.000E+00

     total cpu time spent up to now is        3.4 secs

     total energy              =    -448.47519877 Ry
     estimated scf accuracy    <       0.08813549 Ry

     iteration # 10     ecut=    64.00 Ry     beta= 0.70
     Davidson diagonalization with overlap
     ethr =  3.15E-04,  avg # of iterations =  1.8

     negative rho (up, down):  2.616E-03 0.000E+00

     total cpu time spent up to now is        3.6 secs

     total energy              =    -448.62927551 Ry
     estimated scf accuracy    <       0.06799544 Ry

     iteration # 11     ecut=    64.00 Ry     beta= 0.70
     Davidson diagonalization with overlap
     ethr =  2.43E-04,  avg # of iterations =  6.5

     negative rho (up, down):  1.682E-03 0.000E+00

     total cpu time spent up to now is        3.8 secs

     total energy              =    -448.77886981 Ry
     estimated scf accuracy    <      21.44307731 Ry

     iteration # 12     ecut=    64.00 Ry     beta= 0.70
     Davidson diagonalization with overlap
     ethr =  2.43E-04,  avg # of iterations =  4.2

     negative rho (up, down):  2.013E-03 0.000E+00

     total cpu time spent up to now is        4.0 secs

     total energy              =    -449.12921991 Ry
     estimated scf accuracy    <       7.65928155 Ry

     iteration # 13     ecut=    64.00 Ry     beta= 0.70
     Davidson diagonalization with overlap
     ethr =  2.43E-04,  avg # of iterations =  2.2

     negative rho (up, down):  1.060E-04 0.000E+00

     total cpu time spent up to now is        4.2 secs

     total energy              =    -447.13432946 Ry
     estimated scf accuracy    <       9.39449962 Ry

     iteration # 14     ecut=    64.00 Ry     beta= 0.70
     Davidson diagonalization with overlap
     ethr =  2.43E-04,  avg # of iterations =  6.8

     negative rho (up, down):  1.129E-04 0.000E+00

     total cpu time spent up to now is        4.4 secs

     total energy              =    -448.63634082 Ry
     estimated scf accuracy    <       1.86045860 Ry

     iteration # 15     ecut=    64.00 Ry     beta= 0.70
     Davidson diagonalization with overlap
     ethr =  2.43E-04,  avg # of iterations =  1.5

     negative rho (up, down):  8.966E-04 0.000E+00

     total cpu time spent up to now is        4.5 secs

     total energy              =    -448.23123442 Ry
     estimated scf accuracy    <       1.61412528 Ry

     iteration # 16     ecut=    64.00 Ry     beta= 0.70
     Davidson diagonalization with overlap
     ethr =  2.43E-04,  avg # of iterations =  5.0

     negative rho (up, down):  1.032E-03 0.000E+00

     total cpu time spent up to now is        4.7 secs

     total energy              =    -448.49462981 Ry
     estimated scf accuracy    <       0.08962604 Ry

     iteration # 17     ecut=    64.00 Ry     beta= 0.70
     Davidson diagonalization with overlap
     ethr =  2.43E-04,  avg # of iterations =  2.0

     negative rho (up, down):  1.437E-04 0.000E+00

     total cpu time spent up to now is        4.9 secs

     total energy              =    -448.33444613 Ry
     estimated scf accuracy    <       0.78227762 Ry

     iteration # 18     ecut=    64.00 Ry     beta= 0.70
     Davidson diagonalization with overlap
     ethr =  2.43E-04,  avg # of iterations =  4.2

     negative rho (up, down):  2.719E-04 0.000E+00

     total cpu time spent up to now is        5.1 secs

     total energy              =    -448.46924201 Ry
     estimated scf accuracy    <       0.20245854 Ry

     iteration # 19     ecut=    64.00 Ry     beta= 0.70
     Davidson diagonalization with overlap
     ethr =  2.43E-04,  avg # of iterations =  1.8

     negative rho (up, down):  1.853E-04 0.000E+00

     total cpu time spent up to now is        5.3 secs

     total energy              =    -448.48678623 Ry
     estimated scf accuracy    <       0.09751456 Ry

     iteration # 20     ecut=    64.00 Ry     beta= 0.70
     Davidson diagonalization with overlap
     ethr =  2.43E-04,  avg # of iterations =  1.2

     negative rho (up, down):  1.891E-04 0.000E+00

     total cpu time spent up to now is        5.5 secs

     total energy              =    -448.49751826 Ry
     estimated scf accuracy    <       0.18724166 Ry

     iteration # 21     ecut=    64.00 Ry     beta= 0.70
     Davidson diagonalization with overlap
     ethr =  2.43E-04,  avg # of iterations =  1.2

     negative rho (up, down):  1.476E-04 0.000E+00

     total cpu time spent up to now is        5.7 secs

     total energy              =    -448.50938778 Ry
     estimated scf accuracy    <       0.26058357 Ry

     iteration # 22     ecut=    64.00 Ry     beta= 0.70
     Davidson diagonalization with overlap
     ethr =  2.43E-04,  avg # of iterations =  1.0

     negative rho (up, down):  3.541E-04 0.000E+00

     total cpu time spent up to now is        5.9 secs

     total energy              =    -448.45944575 Ry
     estimated scf accuracy    <       0.28302843 Ry

     iteration # 23     ecut=    64.00 Ry     beta= 0.70
     Davidson diagonalization with overlap
     ethr =  2.43E-04,  avg # of iterations =  2.0
     Minimization algorithm failed to find Fermi energy: reverting to bisection
     Possible cause: smearing is larger than the electronic band-gap.

     negative rho (up, down):  5.648E-04 0.000E+00

     total cpu time spent up to now is        6.1 secs

     total energy              =    -448.45248558 Ry
     estimated scf accuracy    <       0.10328862 Ry

     iteration # 24     ecut=    64.00 Ry     beta= 0.70
     Davidson diagonalization with overlap
     ethr =  2.43E-04,  avg # of iterations =  2.8
     Minimization algorithm failed to find Fermi energy: reverting to bisection
     Possible cause: smearing is larger than the electronic band-gap.

     negative rho (up, down):  1.685E-03 0.000E+00

     total cpu time spent up to now is        6.4 secs

     total energy              =    -448.50404974 Ry
     estimated scf accuracy    <       0.03485096 Ry

     iteration # 25     ecut=    64.00 Ry     beta= 0.70
     Davidson diagonalization with overlap
     ethr =  1.24E-04,  avg # of iterations =  6.5

     negative rho (up, down):  1.274E-04 0.000E+00

     total cpu time spent up to now is        6.6 secs

     total energy              =    -447.50676310 Ry
     estimated scf accuracy    <      25.73753703 Ry

     iteration # 26     ecut=    64.00 Ry     beta= 0.70
     Davidson diagonalization with overlap
     ethr =  1.24E-04,  avg # of iterations =  6.5

     negative rho (up, down):  1.114E-03 0.000E+00

     total cpu time spent up to now is        6.8 secs

     total energy              =    -448.26888903 Ry
     estimated scf accuracy    <       2.69291885 Ry

     iteration # 27     ecut=    64.00 Ry     beta= 0.70
     Davidson diagonalization with overlap
     ethr =  1.24E-04,  avg # of iterations =  5.2

     negative rho (up, down):  1.189E-03 0.000E+00

     total cpu time spent up to now is        7.0 secs

     total energy              =    -448.52905665 Ry
     estimated scf accuracy    <       0.94985578 Ry

     iteration # 28     ecut=    64.00 Ry     beta= 0.70
     Davidson diagonalization with overlap
     ethr =  1.24E-04,  avg # of iterations =  3.2

     negative rho (up, down):  5.656E-04 0.000E+00

     total cpu time spent up to now is        7.2 secs

     total energy              =    -448.28154150 Ry
     estimated scf accuracy    <       0.85133935 Ry

     iteration # 29     ecut=    64.00 Ry     beta= 0.70
     Davidson diagonalization with overlap
     ethr =  1.24E-04,  avg # of iterations =  5.2

     negative rho (up, down):  5.411E-04 0.000E+00

     total cpu time spent up to now is        7.5 secs

     total energy              =    -448.54314215 Ry
     estimated scf accuracy    <       1.15805922 Ry

     iteration # 30     ecut=    64.00 Ry     beta= 0.70
     Davidson diagonalization with overlap
     ethr =  1.24E-04,  avg # of iterations =  1.0

     negative rho (up, down):  4.888E-04 0.000E+00

     total cpu time spent up to now is        7.7 secs

     total energy              =    -448.55826788 Ry
     estimated scf accuracy    <       1.18719510 Ry

     iteration # 31     ecut=    64.00 Ry     beta= 0.70
     Davidson diagonalization with overlap
     ethr =  1.24E-04,  avg # of iterations =  2.5

     negative rho (up, down):  5.354E-04 0.000E+00

     total cpu time spent up to now is        7.9 secs

     total energy              =    -448.48296023 Ry
     estimated scf accuracy    <       1.27612670 Ry

     iteration # 32     ecut=    64.00 Ry     beta= 0.70
     Davidson diagonalization with overlap
     ethr =  1.24E-04,  avg # of iterations =  3.0

     negative rho (up, down):  4.138E-04 0.000E+00

     total cpu time spent up to now is        8.0 secs

     total energy              =    -448.51248488 Ry
     estimated scf accuracy    <       0.19701340 Ry

     iteration # 33     ecut=    64.00 Ry     beta= 0.70
     Davidson diagonalization with overlap
     ethr =  1.24E-04,  avg # of iterations =  2.0

     negative rho (up, down):  5.051E-04 0.000E+00

     total cpu time spent up to now is        8.2 secs

     total energy              =    -448.48908956 Ry
     estimated scf accuracy    <       0.95363924 Ry

     iteration # 34     ecut=    64.00 Ry     beta= 0.70
     Davidson diagonalization with overlap
     ethr =  1.24E-04,  avg # of iterations =  1.5

     negative rho (up, down):  5.403E-04 0.000E+00

     total cpu time spent up to now is        8.4 secs

     total energy              =    -448.48995868 Ry
     estimated scf accuracy    <       0.18060497 Ry

     iteration # 35     ecut=    64.00 Ry     beta= 0.70
     Davidson diagonalization with overlap
     ethr =  1.24E-04,  avg # of iterations =  1.0

     negative rho (up, down):  5.682E-04 0.000E+00

     total cpu time spent up to now is        8.6 secs

     total energy              =    -448.48501160 Ry
     estimated scf accuracy    <       0.16970008 Ry

     iteration # 36     ecut=    64.00 Ry     beta= 0.70
     Davidson diagonalization with overlap
     ethr =  1.24E-04,  avg # of iterations =  1.0

     negative rho (up, down):  5.949E-04 0.000E+00

     total cpu time spent up to now is        8.8 secs

     total energy              =    -448.48028881 Ry
     estimated scf accuracy    <       0.15644325 Ry

     iteration # 37     ecut=    64.00 Ry     beta= 0.70
     Davidson diagonalization with overlap
     ethr =  1.24E-04,  avg # of iterations =  1.0

     negative rho (up, down):  7.685E-04 0.000E+00

     total cpu time spent up to now is        9.0 secs

     total energy              =    -448.45397654 Ry
     estimated scf accuracy    <       0.12509977 Ry

     iteration # 38     ecut=    64.00 Ry     beta= 0.70
     Davidson diagonalization with overlap
     ethr =  1.24E-04,  avg # of iterations =  3.5

     negative rho (up, down):  7.491E-04 0.000E+00

     total cpu time spent up to now is        9.2 secs

     total energy              =    -448.46619342 Ry
     estimated scf accuracy    <       0.00121521 Ry

     iteration # 39     ecut=    64.00 Ry     beta= 0.70
     Davidson diagonalization with overlap
     ethr =  4.34E-06,  avg # of iterations =  3.0

     negative rho (up, down):  7.122E-04 0.000E+00

     total cpu time spent up to now is        9.4 secs

     total energy              =    -448.46659810 Ry
     estimated scf accuracy    <       0.00167374 Ry

     iteration # 40     ecut=    64.00 Ry     beta= 0.70
     Davidson diagonalization with overlap
     ethr =  4.34E-06,  avg # of iterations =  3.2

     negative rho (up, down):  7.280E-04 0.000E+00

     total cpu time spent up to now is        9.6 secs

     total energy              =    -448.46635032 Ry
     estimated scf accuracy    <       0.00426000 Ry

     iteration # 41     ecut=    64.00 Ry     beta= 0.70
     Davidson diagonalization with overlap
     ethr =  4.34E-06,  avg # of iterations =  1.8

     negative rho (up, down):  7.391E-04 0.000E+00

     total cpu time spent up to now is        9.8 secs

     total energy              =    -448.46599660 Ry
     estimated scf accuracy    <       0.00181673 Ry

     iteration # 42     ecut=    64.00 Ry     beta= 0.70
     Davidson diagonalization with overlap
     ethr =  4.34E-06,  avg # of iterations =  3.2

     negative rho (up, down):  7.322E-04 0.000E+00

     total cpu time spent up to now is       10.0 secs

     total energy              =    -448.46624256 Ry
     estimated scf accuracy    <       0.00005713 Ry

     iteration # 43     ecut=    64.00 Ry     beta= 0.70
     Davidson diagonalization with overlap
     ethr =  2.04E-07,  avg # of iterations =  3.5

     negative rho (up, down):  7.472E-04 0.000E+00

     total cpu time spent up to now is       10.1 secs

     total energy              =    -448.46628157 Ry
     estimated scf accuracy    <       0.00001864 Ry

     iteration # 44     ecut=    64.00 Ry     beta= 0.70
     Davidson diagonalization with overlap
     ethr =  6.66E-08,  avg # of iterations =  5.5

     negative rho (up, down):  7.344E-04 0.000E+00

     total cpu time spent up to now is       10.4 secs

     total energy              =    -448.46594985 Ry
     estimated scf accuracy    <       0.00271239 Ry

     iteration # 45     ecut=    64.00 Ry     beta= 0.70
     Davidson diagonalization with overlap
     ethr =  6.66E-08,  avg # of iterations =  5.2

     negative rho (up, down):  7.393E-04 0.000E+00

     total cpu time spent up to now is       10.6 secs

     total energy              =    -448.46625773 Ry
     estimated scf accuracy    <       0.00003414 Ry

     iteration # 46     ecut=    64.00 Ry     beta= 0.70
     Davidson diagonalization with overlap
     ethr =  6.66E-08,  avg # of iterations =  1.5

     negative rho (up, down):  7.401E-04 0.000E+00

     total cpu time spent up to now is       10.8 secs

     total energy              =    -448.46625701 Ry
     estimated scf accuracy    <       0.00001142 Ry

     iteration # 47     ecut=    64.00 Ry     beta= 0.70
     Davidson diagonalization with overlap
     ethr =  4.08E-08,  avg # of iterations =  2.8

     negative rho (up, down):  7.403E-04 0.000E+00

     total cpu time spent up to now is       11.0 secs

     total energy              =    -448.46625758 Ry
     estimated scf accuracy    <       0.00000255 Ry

     iteration # 48     ecut=    64.00 Ry     beta= 0.70
     Davidson diagonalization with overlap
     ethr =  9.10E-09,  avg # of iterations =  1.5

     negative rho (up, down):  7.410E-04 0.000E+00

     total cpu time spent up to now is       11.2 secs

     total energy              =    -448.46625767 Ry
     estimated scf accuracy    <       0.00000250 Ry

     iteration # 49     ecut=    64.00 Ry     beta= 0.70
     Davidson diagonalization with overlap
     ethr =  8.94E-09,  avg # of iterations =  3.0

     negative rho (up, down):  7.401E-04 0.000E+00

     total cpu time spent up to now is       11.4 secs

     total energy              =    -448.46625815 Ry
     estimated scf accuracy    <       0.00001049 Ry

     iteration # 50     ecut=    64.00 Ry     beta= 0.70
     Davidson diagonalization with overlap
     ethr =  8.94E-09,  avg # of iterations =  1.8

     negative rho (up, down):  7.410E-04 0.000E+00

     total cpu time spent up to now is       11.6 secs

     total energy              =    -448.46625669 Ry
     estimated scf accuracy    <       0.00000851 Ry

     iteration # 51     ecut=    64.00 Ry     beta= 0.70
     Davidson diagonalization with overlap
     ethr =  8.94E-09,  avg # of iterations =  3.2

     negative rho (up, down):  7.400E-04 0.000E+00

     total cpu time spent up to now is       11.8 secs

     total energy              =    -448.46625734 Ry
     estimated scf accuracy    <       0.00000053 Ry

     iteration # 52     ecut=    64.00 Ry     beta= 0.70
     Davidson diagonalization with overlap
     ethr =  1.89E-09,  avg # of iterations =  2.0

     negative rho (up, down):  7.411E-04 0.000E+00

     total cpu time spent up to now is       12.0 secs

     total energy              =    -448.46625718 Ry
     estimated scf accuracy    <       0.00000090 Ry

     iteration # 53     ecut=    64.00 Ry     beta= 0.70
     Davidson diagonalization with overlap
     ethr =  1.89E-09,  avg # of iterations =  2.2

     negative rho (up, down):  7.413E-04 0.000E+00

     total cpu time spent up to now is       12.2 secs

     total energy              =    -448.46625724 Ry
     estimated scf accuracy    <       0.00000025 Ry

     iteration # 54     ecut=    64.00 Ry     beta= 0.70
     Davidson diagonalization with overlap
     ethr =  9.04E-10,  avg # of iterations =  1.2

     negative rho (up, down):  7.413E-04 0.000E+00

     total cpu time spent up to now is       12.4 secs

     total energy              =    -448.46625723 Ry
     estimated scf accuracy    <       0.00000006 Ry

     iteration # 55     ecut=    64.00 Ry     beta= 0.70
     Davidson diagonalization with overlap
     ethr =  2.30E-10,  avg # of iterations =  2.2

     negative rho (up, down):  7.413E-04 0.000E+00

     total cpu time spent up to now is       12.6 secs

     End of self-consistent calculation

          k = 0.0000 0.0000 0.0000 (  1419 PWs)   bands (ev):

   -68.1384 -38.5095 -34.2541 -34.2541 -34.2541 -14.6414 -14.6414 -14.6414
    10.1986  14.2496  14.2496  17.3723  17.3723  17.3723  19.6218  19.6218
    21.5465  21.5465

          k = 0.0000 0.0000-0.5000 (  1462 PWs)   bands (ev):

   -68.1350 -38.4810 -34.2899 -34.2493 -34.2493 -15.0196 -14.6187 -14.6187
    14.0332  14.1937  16.1564  17.3226  17.3336  17.3336  18.0281  18.9946
    18.9946  19.3069

          k = 0.0000-0.5000-0.5000 (  1492 PWs)   bands (ev):

   -68.1315 -38.4322 -34.3022 -34.3022 -34.2454 -14.9508 -14.9508 -14.5822
    13.6250  14.3456  16.0710  16.0710  18.6023  18.7954  18.7954  18.9031
    20.0534  21.5886

          k =-0.5000-0.5000-0.5000 (  1472 PWs)   bands (ev):

   -68.1278 -38.3941 -34.2945 -34.2945 -34.2945 -14.9260 -14.9260 -14.9260
    15.9777  15.9777  15.9777  16.1129  16.1129  16.1129  18.6459  18.6459
    21.7791  21.7791

     the Fermi energy is    18.6379 ev

!    total energy              =    -448.46625724 Ry
     estimated scf accuracy    <          2.7E-10 Ry
     smearing contrib. (-TS)   =      -0.00068245 Ry
     internal energy E=F+TS    =    -448.46557479 Ry

     The total energy is F=E-TS. E is the sum of the following terms:
     one-electron contribution =    -152.47802264 Ry
     hartree contribution      =      93.06119941 Ry
     xc contribution           =     -53.08865412 Ry
     ewald contribution        =    -259.82070277 Ry
     one-center paw contrib.   =     -76.13939467 Ry

     convergence has been achieved in  55 iterations

     negative rho (up, down):  7.413E-04 0.000E+00

     Forces acting on atoms (cartesian axes, Ry/au):

     atom    1 type  1   force =     0.00000000    0.00000000    0.00000000
     atom    2 type  2   force =     0.00000000    0.00000000    0.00000000

     Total force =     0.000000     Total SCF correction =     0.000000


     Computing stress (Cartesian axis) and pressure


     negative rho (up, down):  7.413E-04 0.000E+00
          total   stress  (Ry/bohr**3)                   (kbar)     P=       14.68
   0.00009977   0.00000000   0.00000000           14.68        0.00        0.00
   0.00000000   0.00009977   0.00000000            0.00       14.68        0.00
   0.00000000   0.00000000   0.00009977            0.00        0.00       14.68


     Writing all to output data dir ./TiFe.save/ :
     XML data file, charge density, pseudopotentials, collected wavefunctions

     init_run     :      0.57s CPU      1.05s WALL (       1 calls)
     electrons    :     10.88s CPU     11.15s WALL (       1 calls)
     forces       :      0.09s CPU      0.09s WALL (       1 calls)
     stress       :      0.44s CPU      0.44s WALL (       1 calls)

     Called by init_run:
     wfcinit      :      0.01s CPU      0.39s WALL (       1 calls)
     potinit      :      0.23s CPU      0.30s WALL (       1 calls)
     hinit0       :      0.24s CPU      0.25s WALL (       1 calls)

     Called by electrons:
     c_bands      :      1.33s CPU      1.38s WALL (      55 calls)
     sum_band     :      3.57s CPU      3.61s WALL (      55 calls)
     v_of_rho     :      0.36s CPU      0.40s WALL (      56 calls)
     newd         :      2.35s CPU      2.38s WALL (      56 calls)
     PAW_pot      :      3.26s CPU      3.37s WALL (      56 calls)
     mix_rho      :      0.06s CPU      0.06s WALL (      55 calls)

     Called by c_bands:
     init_us_2    :      0.03s CPU      0.03s WALL (     452 calls)
     cegterg      :      1.27s CPU      1.31s WALL (     220 calls)

     Called by *egterg:
     cdiaghg      :      0.25s CPU      0.63s WALL (     849 calls)
     h_psi        :      0.87s CPU      0.91s WALL (     853 calls)
     s_psi        :      0.02s CPU      0.02s WALL (     853 calls)
     g_psi        :      0.00s CPU      0.00s WALL (     629 calls)

     Called by h_psi:
     h_psi:calbec :      0.04s CPU      0.05s WALL (     853 calls)
     vloc_psi     :      0.80s CPU      0.83s WALL (     853 calls)
     add_vuspsi   :      0.03s CPU      0.03s WALL (     853 calls)

     General routines
     calbec       :      0.06s CPU      0.06s WALL (    1141 calls)
     fft          :      0.33s CPU      0.36s WALL (     751 calls)
     ffts         :      0.16s CPU      0.16s WALL (     111 calls)
     fftw         :      0.72s CPU      0.74s WALL (   23836 calls)
     interpolate  :      0.17s CPU      0.17s WALL (      56 calls)

     Parallel routines

     PWSCF        :     12.17s CPU     13.49s WALL


   This run was terminated on:  21:56:42  27Oct2025            

=------------------------------------------------------------------------------=
   JOB DONE.
=------------------------------------------------------------------------------=
Note: The following floating-point exceptions are signalling: IEEE_UNDERFLOW_FLAG IEEE_DENORMAL
Note: The following floating-point exceptions are signalling: IEEE_UNDERFLOW_FLAG IEEE_DENORMAL
Note: The following floating-point exceptions are signalling: IEEE_UNDERFLOW_FLAG IEEE_DENORMAL
Note: The following floating-point exceptions are signalling: IEEE_UNDERFLOW_FLAG IEEE_DENORMAL
Note: The following floating-point exceptions are signalling: IEEE_UNDERFLOW_FLAG IEEE_DENORMAL
Note: The following floating-point exceptions are signalling: IEEE_UNDERFLOW_FLAG IEEE_DENORMAL
Note: The following floating-point exceptions are signalling: IEEE_UNDERFLOW_FLAG IEEE_DENORMAL
Note: The following floating-point exceptions are signalling: IEEE_UNDERFLOW_FLAG IEEE_DENORMAL
