
     Program PWSCF v.7.4 starts on 27Oct2025 at 21:57:24 

     This program is part of the open-source Quantum ESPRESSO suite
     for quantum simulation of materials; please cite
         "P. Giannozzi et al., J. Phys.:Condens. Matter 21 395502 (2009);
         "P. Giannozzi et al., J. Phys.:Condens. Matter 29 465901 (2017);
         "P. Giannozzi et al., J. Chem. Phys. 152 154105 (2020);
          URL http://www.quantum-espresso.org", 
     in publications or presentations arising from this work. More details at
     http://www.quantum-espresso.org/quote

     Parallel version (MPI & OpenMP), running on       8 processor cores
     Number of MPI processes:                 8
     Threads/MPI process:                     1

     MPI processes distributed on     1 nodes
     183478 MiB available memory on the printing compute node when the environment starts

     Reading input from TiFe_kmesh_convergence/TiFe2_k777.in

     Current dimensions of program PWSCF are:
     Max number of different atomic species (ntypx) = 10
     Max number of k-points (npk) =  40000
     Max angular momentum in pseudopotentials (lmaxx) =  4
     file Fe.pbe-spn-kjpaw_psl.0.2.1.UPF: wavefunction(s)  3D renormalized

     IMPORTANT: XC functional enforced from input :
     Exchange-correlation= PBE
                           (   1   4   3   4   0   0   0)
     Any further DFT definition will be discarded
     Please, verify this is what you really want

     Message from routine setup:
     using ibrav=0 with symmetry is DISCOURAGED, use correct ibrav instead

     R & G space division:  proc/nbgrp/npool/nimage =       8
     Subspace diagonalization in iterative solution of the eigenvalue problem:
     a serial algorithm will be used


     Parallelization info
     --------------------
     sticks:   dense  smooth     PW     G-vecs:    dense   smooth      PW
     Min         239      77     23                 7884     1467     250
     Max         242      78     25                 7885     1470     252
     Sum        1917     621    193                63077    11753    2007

     Using Slab Decomposition



     bravais-lattice index     =            0
     lattice parameter (alat)  =       5.5533  a.u.
     unit-cell volume          =     171.2590 (a.u.)^3
     number of atoms/cell      =            2
     number of atomic types    =            2
     number of electrons       =        28.00
     number of Kohn-Sham states=           18
     kinetic-energy cutoff     =      64.0000  Ry
     charge density cutoff     =     782.0000  Ry
     scf convergence threshold =      1.0E-08
     mixing beta               =       0.7000
     number of iterations used =            8  plain     mixing
     Exchange-correlation= PBE
                           (   1   4   3   4   0   0   0)

     celldm(1)=   5.553300  celldm(2)=   0.000000  celldm(3)=   0.000000
     celldm(4)=   0.000000  celldm(5)=   0.000000  celldm(6)=   0.000000

     crystal axes: (cart. coord. in units of alat)
               a(1) = (   1.000000   0.000000   0.000000 )  
               a(2) = (   0.000000   1.000000   0.000000 )  
               a(3) = (   0.000000   0.000000   1.000000 )  

     reciprocal axes: (cart. coord. in units 2 pi/alat)
               b(1) = (  1.000000  0.000000  0.000000 )  
               b(2) = (  0.000000  1.000000  0.000000 )  
               b(3) = (  0.000000  0.000000  1.000000 )  


     PseudoPot. # 1 for Fe read from file:
     ./Fe.pbe-spn-kjpaw_psl.0.2.1.UPF
     MD5 check sum: e86618425769142926afa95317d90200
     Pseudo is Projector augmented-wave + core cor, Zval = 16.0
     Generated using "atomic" code by A. Dal Corso  v.5.0.99 svn rev. 10869
     Shape of augmentation charge: PSQ
     Using radial grid of 1191 points,  6 beta functions with: 
                l(1) =   0
                l(2) =   0
                l(3) =   1
                l(4) =   1
                l(5) =   2
                l(6) =   2
     Q(r) pseudized with 0 coefficients 


     PseudoPot. # 2 for Ti read from file:
     ./Ti_pbe_v1.4.uspp.F.UPF
     MD5 check sum: 88a00a6731bd790ddea75d31a80cb452
     Pseudo is Ultrasoft + core correction, Zval = 12.0
     Generated by new atomic code, or converted to UPF format
     Using radial grid of  851 points,  6 beta functions with: 
                l(1) =   0
                l(2) =   0
                l(3) =   1
                l(4) =   1
                l(5) =   2
                l(6) =   2
     Q(r) pseudized with  6 coefficients,  rinner =    1.000   1.000   1.000
                                                       1.000   1.000

     atomic species   valence    mass     pseudopotential
     Fe               16.00    55.84500     Fe( 1.00)
     Ti               12.00    47.86700     Ti( 1.00)

     48 Sym. Ops., with inversion, found



   Cartesian axes

     site n.     atom                  positions (alat units)
         1        Fe     tau(   1) = (   0.5000000   0.5000000   0.5000000  )
         2        Ti     tau(   2) = (   0.0000000   0.0000000   0.0000000  )

     number of k points=    20  Marzari-Vanderbilt smearing, width (Ry)=  0.0050
                       cart. coord. in units 2pi/alat
        k(    1) = (   0.0000000   0.0000000   0.0000000), wk =   0.0058309
        k(    2) = (   0.0000000   0.0000000   0.1428571), wk =   0.0349854
        k(    3) = (   0.0000000   0.0000000   0.2857143), wk =   0.0349854
        k(    4) = (   0.0000000   0.0000000   0.4285714), wk =   0.0349854
        k(    5) = (   0.0000000   0.1428571   0.1428571), wk =   0.0699708
        k(    6) = (   0.0000000   0.1428571   0.2857143), wk =   0.1399417
        k(    7) = (   0.0000000   0.1428571   0.4285714), wk =   0.1399417
        k(    8) = (   0.0000000   0.2857143   0.2857143), wk =   0.0699708
        k(    9) = (   0.0000000   0.2857143   0.4285714), wk =   0.1399417
        k(   10) = (   0.0000000   0.4285714   0.4285714), wk =   0.0699708
        k(   11) = (   0.1428571   0.1428571   0.1428571), wk =   0.0466472
        k(   12) = (   0.1428571   0.1428571   0.2857143), wk =   0.1399417
        k(   13) = (   0.1428571   0.1428571   0.4285714), wk =   0.1399417
        k(   14) = (   0.1428571   0.2857143   0.2857143), wk =   0.1399417
        k(   15) = (   0.1428571   0.2857143   0.4285714), wk =   0.2798834
        k(   16) = (   0.1428571   0.4285714   0.4285714), wk =   0.1399417
        k(   17) = (   0.2857143   0.2857143   0.2857143), wk =   0.0466472
        k(   18) = (   0.2857143   0.2857143   0.4285714), wk =   0.1399417
        k(   19) = (   0.2857143   0.4285714   0.4285714), wk =   0.1399417
        k(   20) = (   0.4285714   0.4285714   0.4285714), wk =   0.0466472

     Dense  grid:    63077 G-vectors     FFT dimensions: (  50,  50,  50)

     Smooth grid:    11753 G-vectors     FFT dimensions: (  30,  30,  30)

     Estimated max dynamical RAM per process >      34.51 MB

     Estimated total dynamical RAM >     276.05 MB

     Check: negative core charge=   -0.000015

     Initial potential from superposition of free atoms

     starting charge      26.9995, renormalised to      28.0000

     negative rho (up, down):  1.188E-03 0.000E+00
     Starting wfcs are   23 randomized atomic wfcs
     Checking if some PAW data can be deallocated... 

     total cpu time spent up to now is        0.9 secs

     per-process dynamical memory:   140.7 Mb

     Self-consistent Calculation

     iteration #  1     ecut=    64.00 Ry     beta= 0.70
     Davidson diagonalization with overlap
     ethr =  1.00E-02,  avg # of iterations =  2.1

     negative rho (up, down):  2.078E-04 0.000E+00

     total cpu time spent up to now is        1.2 secs

     WARNING: integrated charge=    28.00000384, expected=    28.00000000

     total energy              =    -434.95091996 Ry
     estimated scf accuracy    <      17.39201092 Ry

     iteration #  2     ecut=    64.00 Ry     beta= 0.70
     Davidson diagonalization with overlap
     ethr =  1.00E-02,  avg # of iterations =  5.8

     negative rho (up, down):  7.351E-05 0.000E+00

     total cpu time spent up to now is        1.6 secs

     WARNING: integrated charge=    28.00000293, expected=    28.00000000

     total energy              =    -448.56221206 Ry
     estimated scf accuracy    <      65.63148139 Ry

     iteration #  3     ecut=    64.00 Ry     beta= 0.70
     Davidson diagonalization with overlap
     ethr =  1.00E-02,  avg # of iterations =  3.2

     negative rho (up, down):  1.538E-04 0.000E+00

     total cpu time spent up to now is        2.0 secs

     total energy              =    -448.57326431 Ry
     estimated scf accuracy    <      16.73754817 Ry

     iteration #  4     ecut=    64.00 Ry     beta= 0.70
     Davidson diagonalization with overlap
     ethr =  1.00E-02,  avg # of iterations =  2.2

     negative rho (up, down):  1.920E-04 0.000E+00

     total cpu time spent up to now is        2.3 secs

     total energy              =    -449.10927751 Ry
     estimated scf accuracy    <       4.63291116 Ry

     iteration #  5     ecut=    64.00 Ry     beta= 0.70
     Davidson diagonalization with overlap
     ethr =  1.00E-02,  avg # of iterations =  1.0

     negative rho (up, down):  2.114E-04 0.000E+00

     total cpu time spent up to now is        2.6 secs

     total energy              =    -449.12535345 Ry
     estimated scf accuracy    <       4.27700620 Ry

     iteration #  6     ecut=    64.00 Ry     beta= 0.70
     Davidson diagonalization with overlap
     ethr =  1.00E-02,  avg # of iterations =  1.0

     negative rho (up, down):  7.335E-04 0.000E+00

     total cpu time spent up to now is        2.9 secs

     total energy              =    -448.29296377 Ry
     estimated scf accuracy    <       4.33105842 Ry

     iteration #  7     ecut=    64.00 Ry     beta= 0.70
     Davidson diagonalization with overlap
     ethr =  1.00E-02,  avg # of iterations =  1.5

     negative rho (up, down):  7.385E-04 0.000E+00

     total cpu time spent up to now is        3.2 secs

     total energy              =    -448.56878799 Ry
     estimated scf accuracy    <       0.12382575 Ry

     iteration #  8     ecut=    64.00 Ry     beta= 0.70
     Davidson diagonalization with overlap
     ethr =  4.42E-04,  avg # of iterations =  4.5

     negative rho (up, down):  1.425E-03 0.000E+00

     total cpu time spent up to now is        3.5 secs

     total energy              =    -448.57395793 Ry
     estimated scf accuracy    <       0.14928641 Ry

     iteration #  9     ecut=    64.00 Ry     beta= 0.70
     Davidson diagonalization with overlap
     ethr =  4.42E-04,  avg # of iterations =  4.2

     negative rho (up, down):  1.006E-03 0.000E+00

     total cpu time spent up to now is        3.9 secs

     total energy              =    -448.55974350 Ry
     estimated scf accuracy    <       0.38598810 Ry

     iteration # 10     ecut=    64.00 Ry     beta= 0.70
     Davidson diagonalization with overlap
     ethr =  4.42E-04,  avg # of iterations =  3.6

     negative rho (up, down):  9.311E-04 0.000E+00

     total cpu time spent up to now is        4.3 secs

     total energy              =    -448.59407077 Ry
     estimated scf accuracy    <       0.31924756 Ry

     iteration # 11     ecut=    64.00 Ry     beta= 0.70
     Davidson diagonalization with overlap
     ethr =  4.42E-04,  avg # of iterations =  1.0

     negative rho (up, down):  9.116E-04 0.000E+00

     total cpu time spent up to now is        4.6 secs

     total energy              =    -448.59964975 Ry
     estimated scf accuracy    <       0.16064280 Ry

     iteration # 12     ecut=    64.00 Ry     beta= 0.70
     Davidson diagonalization with overlap
     ethr =  4.42E-04,  avg # of iterations =  1.5

     negative rho (up, down):  8.526E-04 0.000E+00

     total cpu time spent up to now is        4.9 secs

     total energy              =    -448.53917654 Ry
     estimated scf accuracy    <       0.58203335 Ry

     iteration # 13     ecut=    64.00 Ry     beta= 0.70
     Davidson diagonalization with overlap
     ethr =  4.42E-04,  avg # of iterations =  3.1

     negative rho (up, down):  7.407E-04 0.000E+00

     total cpu time spent up to now is        5.2 secs

     total energy              =    -448.58304979 Ry
     estimated scf accuracy    <       0.01097515 Ry

     iteration # 14     ecut=    64.00 Ry     beta= 0.70
     Davidson diagonalization with overlap
     ethr =  3.92E-05,  avg # of iterations =  4.0

     negative rho (up, down):  6.367E-04 0.000E+00

     total cpu time spent up to now is        5.5 secs

     total energy              =    -448.62658532 Ry
     estimated scf accuracy    <       0.10610147 Ry

     iteration # 15     ecut=    64.00 Ry     beta= 0.70
     Davidson diagonalization with overlap
     ethr =  3.92E-05,  avg # of iterations =  4.8

     negative rho (up, down):  9.272E-04 0.000E+00

     total cpu time spent up to now is        5.9 secs

     total energy              =    -448.50777011 Ry
     estimated scf accuracy    <       0.76027815 Ry

     iteration # 16     ecut=    64.00 Ry     beta= 0.70
     Davidson diagonalization with overlap
     ethr =  3.92E-05,  avg # of iterations =  5.5

     negative rho (up, down):  8.618E-04 0.000E+00

     total cpu time spent up to now is        6.3 secs

     total energy              =    -448.57301029 Ry
     estimated scf accuracy    <       0.06659032 Ry

     iteration # 17     ecut=    64.00 Ry     beta= 0.70
     Davidson diagonalization with overlap
     ethr =  3.92E-05,  avg # of iterations =  3.9

     negative rho (up, down):  9.005E-04 0.000E+00

     total cpu time spent up to now is        6.6 secs

     total energy              =    -448.57897510 Ry
     estimated scf accuracy    <       0.00842236 Ry

     iteration # 18     ecut=    64.00 Ry     beta= 0.70
     Davidson diagonalization with overlap
     ethr =  3.01E-05,  avg # of iterations =  1.9

     negative rho (up, down):  8.967E-04 0.000E+00

     total cpu time spent up to now is        6.8 secs

     total energy              =    -448.57982114 Ry
     estimated scf accuracy    <       0.00045739 Ry

     iteration # 19     ecut=    64.00 Ry     beta= 0.70
     Davidson diagonalization with overlap
     ethr =  1.63E-06,  avg # of iterations =  3.4

     negative rho (up, down):  8.788E-04 0.000E+00

     total cpu time spent up to now is        7.1 secs

     total energy              =    -448.57982939 Ry
     estimated scf accuracy    <       0.00013457 Ry

     iteration # 20     ecut=    64.00 Ry     beta= 0.70
     Davidson diagonalization with overlap
     ethr =  4.81E-07,  avg # of iterations =  2.1

     negative rho (up, down):  8.719E-04 0.000E+00

     total cpu time spent up to now is        7.4 secs

     total energy              =    -448.57985112 Ry
     estimated scf accuracy    <       0.00001368 Ry

     iteration # 21     ecut=    64.00 Ry     beta= 0.70
     Davidson diagonalization with overlap
     ethr =  4.89E-08,  avg # of iterations =  4.7

     negative rho (up, down):  8.783E-04 0.000E+00

     total cpu time spent up to now is        7.8 secs

     total energy              =    -448.57983674 Ry
     estimated scf accuracy    <       0.00024655 Ry

     iteration # 22     ecut=    64.00 Ry     beta= 0.70
     Davidson diagonalization with overlap
     ethr =  4.89E-08,  avg # of iterations =  4.0

     negative rho (up, down):  8.792E-04 0.000E+00

     total cpu time spent up to now is        8.1 secs

     total energy              =    -448.57984938 Ry
     estimated scf accuracy    <       0.00000388 Ry

     iteration # 23     ecut=    64.00 Ry     beta= 0.70
     Davidson diagonalization with overlap
     ethr =  1.38E-08,  avg # of iterations =  2.0

     negative rho (up, down):  8.790E-04 0.000E+00

     total cpu time spent up to now is        8.5 secs

     total energy              =    -448.57984982 Ry
     estimated scf accuracy    <       0.00000005 Ry

     iteration # 24     ecut=    64.00 Ry     beta= 0.70
     Davidson diagonalization with overlap
     ethr =  1.90E-10,  avg # of iterations =  5.5

     negative rho (up, down):  8.790E-04 0.000E+00

     total cpu time spent up to now is        8.8 secs

     total energy              =    -448.57984991 Ry
     estimated scf accuracy    <       0.00000004 Ry

     iteration # 25     ecut=    64.00 Ry     beta= 0.70
     Davidson diagonalization with overlap
     ethr =  1.51E-10,  avg # of iterations =  1.1

     negative rho (up, down):  8.789E-04 0.000E+00

     total cpu time spent up to now is        9.1 secs

     End of self-consistent calculation

          k = 0.0000 0.0000 0.0000 (  1419 PWs)   bands (ev):

   -69.2045 -39.1664 -35.2569 -35.2569 -35.2569 -15.2593 -15.2593 -15.2593
    10.1564  13.8658  13.8658  16.6618  16.6618  16.6618  18.9959  18.9959
    20.9282  20.9282

          k = 0.0000 0.0000 0.1429 (  1458 PWs)   bands (ev):

   -69.2041 -39.1614 -35.2636 -35.2565 -35.2565 -15.3284 -15.2551 -15.2551
    10.5785  14.0696  14.0771  16.6334  16.6334  16.7534  18.7383  19.0859
    20.3674  20.3674

          k = 0.0000 0.0000 0.2857 (  1458 PWs)   bands (ev):

   -69.2026 -39.1500 -35.2774 -35.2542 -35.2542 -15.4815 -15.2458 -15.2458
    11.7398  14.4873  14.6408  16.5937  16.5937  16.9809  18.0402  19.1526
    19.3651  19.3651

          k = 0.0000 0.0000 0.4286 (  1474 PWs)   bands (ev):

   -69.2015 -39.1410 -35.2883 -35.2529 -35.2529 -15.6021 -15.2384 -15.2384
    13.2793  14.4319  15.3812  16.5983  16.5983  17.1922  17.1929  18.6794
    18.6794  18.7410

          k = 0.0000 0.1429 0.1429 (  1460 PWs)   bands (ev):

   -69.2034 -39.1556 -35.2658 -35.2606 -35.2557 -15.3293 -15.3162 -15.2506
    10.9785  14.2319  14.3065  16.4357  16.5623  16.9366  18.7563  19.0241
    19.8257  19.8811

          k = 0.0000 0.1429 0.2857 (  1483 PWs)   bands (ev):

   -69.2021 -39.1427 -35.2792 -35.2622 -35.2538 -15.4729 -15.3096 -15.2403
    12.0611  14.5749  14.8499  16.2912  16.4353  16.9689  18.3402  18.8543
    19.2785  19.3398

          k = 0.0000 0.1429 0.4286 (  1474 PWs)   bands (ev):

   -69.2009 -39.1323 -35.2902 -35.2619 -35.2522 -15.5904 -15.2996 -15.2320
    13.4368  14.4906  15.4470  16.3214  16.3567  16.7291  17.8368  18.3095
    19.2443  19.2506

          k = 0.0000 0.2857 0.2857 (  1478 PWs)   bands (ev):

   -69.2006 -39.1260 -35.2844 -35.2766 -35.2521 -15.4620 -15.4421 -15.2277
    12.8328  14.5133  15.5413  15.9342  16.3652  16.5540  18.5356  18.7773
    19.1126  19.6404

          k = 0.0000 0.2857 0.4286 (  1495 PWs)   bands (ev):

   -69.1995 -39.1127 -35.2952 -35.2824 -35.2509 -15.5642 -15.4355 -15.2176
    13.5509  14.2559  15.8280  16.0687  16.1404  16.8367  18.2351  18.7636
    19.4321  20.1038

          k = 0.0000 0.4286 0.4286 (  1486 PWs)   bands (ev):

   -69.1983 -39.0968 -35.2994 -35.2978 -35.2495 -15.5448 -15.5409 -15.2060
    13.4342  14.0128  15.5443  15.6279  17.2426  17.7252  18.6320  18.9722
    19.3494  20.7016

          k = 0.1429 0.1429 0.1429 (  1466 PWs)   bands (ev):

   -69.2028 -39.1493 -35.2647 -35.2647 -35.2591 -15.3271 -15.3119 -15.3119
    11.3643  14.4591  14.4591  16.3604  16.3604  16.9385  18.9029  18.9029
    19.3103  20.3181

          k = 0.1429 0.1429 0.2857 (  1485 PWs)   bands (ev):

   -69.2014 -39.1352 -35.2797 -35.2627 -35.2610 -15.4646 -15.3053 -15.3022
    12.3938  14.8654  14.8677  16.1805  16.1820  16.6470  18.5796  18.9706
    19.3390  19.4231

          k = 0.1429 0.1429 0.4286 (  1477 PWs)   bands (ev):

   -69.2002 -39.1239 -35.2917 -35.2616 -35.2607 -15.5801 -15.2944 -15.2927
    13.6535  14.6833  15.3497  15.9640  16.3331  16.5083  18.2355  18.4734
    18.7217  20.1158

          k = 0.1429 0.2857 0.2857 (  1475 PWs)   bands (ev):

   -69.2000 -39.1185 -35.2832 -35.2774 -35.2604 -15.4531 -15.4375 -15.2905
    13.1895  14.8116  15.5451  15.8468  16.0520  16.1329  18.7307  19.0450
    19.1180  20.0189

          k = 0.1429 0.2857 0.4286 (  1481 PWs)   bands (ev):

   -69.1988 -39.1050 -35.2950 -35.2813 -35.2594 -15.5568 -15.4301 -15.2798
    13.8772  14.5492  15.6869  15.7385  16.1315  16.5757  18.3095  18.8307
    19.0685  20.5920

          k = 0.1429 0.4286 0.4286 (  1491 PWs)   bands (ev):

   -69.1977 -39.0898 -35.2981 -35.2971 -35.2582 -15.5394 -15.5364 -15.2688
    13.7681  14.3166  15.4895  15.5476  17.0599  17.2814  18.3576  18.4426
    19.5535  20.9125

          k = 0.2857 0.2857 0.2857 (  1481 PWs)   bands (ev):

   -69.1986 -39.1015 -35.2807 -35.2807 -35.2777 -15.4355 -15.4274 -15.4274
    14.0531  15.3979  15.5225  15.5225  15.6738  15.6738  18.7599  18.7599
    19.8582  19.8582

          k = 0.2857 0.2857 0.4286 (  1478 PWs)   bands (ev):

   -69.1974 -39.0878 -35.2950 -35.2796 -35.2787 -15.5401 -15.4192 -15.4165
    14.5716  14.9793  15.4567  15.5679  15.8349  16.2499  18.2553  18.4826
    19.7292  20.5850

          k = 0.2857 0.4286 0.4286 (  1483 PWs)   bands (ev):

   -69.1963 -39.0739 -35.2953 -35.2950 -35.2775 -15.5273 -15.5262 -15.4079
    14.6335  14.9561  15.4035  15.4731  16.3519  16.4461  18.0284  18.2086
    20.2061  20.9663

          k = 0.4286 0.4286 0.4286 (  1490 PWs)   bands (ev):

   -69.1952 -39.0611 -35.2935 -35.2932 -35.2932 -15.5181 -15.5181 -15.5173
    15.1939  15.4490  15.4490  15.7845  15.8204  15.8204  17.9351  17.9351
    21.0105  21.0105

     the Fermi energy is    17.7339 ev

!    total energy              =    -448.57984990 Ry
     estimated scf accuracy    <          6.6E-09 Ry
     smearing contrib. (-TS)   =      -0.00006226 Ry
     internal energy E=F+TS    =    -448.57978764 Ry

     The total energy is F=E-TS. E is the sum of the following terms:
     one-electron contribution =    -151.33113225 Ry
     hartree contribution      =      91.61027116 Ry
     xc contribution           =     -52.88576564 Ry
     ewald contribution        =    -259.82070277 Ry
     one-center paw contrib.   =     -76.15245815 Ry

     convergence has been achieved in  25 iterations

     negative rho (up, down):  8.789E-04 0.000E+00

     Forces acting on atoms (cartesian axes, Ry/au):

     atom    1 type  1   force =     0.00000000    0.00000000    0.00000000
     atom    2 type  2   force =     0.00000000    0.00000000    0.00000000

     Total force =     0.000000     Total SCF correction =     0.000000


     Computing stress (Cartesian axis) and pressure


     negative rho (up, down):  8.789E-04 0.000E+00
          total   stress  (Ry/bohr**3)                   (kbar)     P=       23.37
   0.00015883   0.00000000   0.00000000           23.37        0.00        0.00
   0.00000000   0.00015883   0.00000000            0.00       23.37        0.00
   0.00000000   0.00000000   0.00015883            0.00        0.00       23.37


     Writing all to output data dir ./TiFe.save/ :
     XML data file, charge density, pseudopotentials, collected wavefunctions

     init_run     :      0.63s CPU      0.66s WALL (       1 calls)
     electrons    :      8.01s CPU      8.26s WALL (       1 calls)
     forces       :      0.08s CPU      0.08s WALL (       1 calls)
     stress       :      0.43s CPU      0.44s WALL (       1 calls)

     Called by init_run:
     wfcinit      :      0.05s CPU      0.06s WALL (       1 calls)
     potinit      :      0.23s CPU      0.24s WALL (       1 calls)
     hinit0       :      0.26s CPU      0.26s WALL (       1 calls)

     Called by electrons:
     c_bands      :      3.16s CPU      3.27s WALL (      25 calls)
     sum_band     :      1.98s CPU      2.00s WALL (      25 calls)
     v_of_rho     :      0.17s CPU      0.19s WALL (      26 calls)
     newd         :      1.23s CPU      1.25s WALL (      26 calls)
     PAW_pot      :      1.52s CPU      1.54s WALL (      26 calls)
     mix_rho      :      0.02s CPU      0.03s WALL (      25 calls)

     Called by c_bands:
     init_us_2    :      0.07s CPU      0.07s WALL (    1060 calls)
     cegterg      :      3.04s CPU      3.14s WALL (     500 calls)

     Called by *egterg:
     cdiaghg      :      0.64s CPU      0.66s WALL (    2051 calls)
     h_psi        :      2.07s CPU      2.14s WALL (    2071 calls)
     s_psi        :      0.06s CPU      0.06s WALL (    2071 calls)
     g_psi        :      0.01s CPU      0.01s WALL (    1551 calls)

     Called by h_psi:
     h_psi:calbec :      0.10s CPU      0.11s WALL (    2071 calls)
     vloc_psi     :      1.89s CPU      1.96s WALL (    2071 calls)
     add_vuspsi   :      0.06s CPU      0.06s WALL (    2071 calls)

     General routines
     calbec       :      0.14s CPU      0.15s WALL (    2911 calls)
     fft          :      0.26s CPU      0.26s WALL (     361 calls)
     ffts         :      0.16s CPU      0.16s WALL (      51 calls)
     fftw         :      1.69s CPU      1.75s WALL (   57636 calls)
     interpolate  :      0.16s CPU      0.16s WALL (      26 calls)

     Parallel routines

     PWSCF        :      9.40s CPU     10.32s WALL


   This run was terminated on:  21:57:34  27Oct2025            

=------------------------------------------------------------------------------=
   JOB DONE.
=------------------------------------------------------------------------------=
Note: The following floating-point exceptions are signalling: IEEE_UNDERFLOW_FLAG IEEE_DENORMAL
Note: The following floating-point exceptions are signalling: IEEE_UNDERFLOW_FLAG IEEE_DENORMAL
Note: The following floating-point exceptions are signalling: IEEE_UNDERFLOW_FLAG IEEE_DENORMAL
Note: The following floating-point exceptions are signalling: IEEE_UNDERFLOW_FLAG IEEE_DENORMAL
Note: The following floating-point exceptions are signalling: IEEE_UNDERFLOW_FLAG IEEE_DENORMAL
Note: The following floating-point exceptions are signalling: IEEE_UNDERFLOW_FLAG IEEE_DENORMAL
Note: The following floating-point exceptions are signalling: IEEE_UNDERFLOW_FLAG IEEE_DENORMAL
Note: The following floating-point exceptions are signalling: IEEE_UNDERFLOW_FLAG IEEE_DENORMAL
