
     Program PWSCF v.7.4 starts on 27Oct2025 at 22:20:27 

     This program is part of the open-source Quantum ESPRESSO suite
     for quantum simulation of materials; please cite
         "P. Giannozzi et al., J. Phys.:Condens. Matter 21 395502 (2009);
         "P. Giannozzi et al., J. Phys.:Condens. Matter 29 465901 (2017);
         "P. Giannozzi et al., J. Chem. Phys. 152 154105 (2020);
          URL http://www.quantum-espresso.org", 
     in publications or presentations arising from this work. More details at
     http://www.quantum-espresso.org/quote

     Parallel version (MPI & OpenMP), running on       8 processor cores
     Number of MPI processes:                 8
     Threads/MPI process:                     1

     MPI processes distributed on     1 nodes
     218106 MiB available memory on the printing compute node when the environment starts

     Reading input from TiFe_kmesh_convergence/TiFe2_k151515.in

     Current dimensions of program PWSCF are:
     Max number of different atomic species (ntypx) = 10
     Max number of k-points (npk) =  40000
     Max angular momentum in pseudopotentials (lmaxx) =  4
     file Fe.pbe-spn-kjpaw_psl.0.2.1.UPF: wavefunction(s)  3D renormalized

     IMPORTANT: XC functional enforced from input :
     Exchange-correlation= PBE
                           (   1   4   3   4   0   0   0)
     Any further DFT definition will be discarded
     Please, verify this is what you really want

     Message from routine setup:
     using ibrav=0 with symmetry is DISCOURAGED, use correct ibrav instead

     R & G space division:  proc/nbgrp/npool/nimage =       8
     Subspace diagonalization in iterative solution of the eigenvalue problem:
     a serial algorithm will be used


     Parallelization info
     --------------------
     sticks:   dense  smooth     PW     G-vecs:    dense   smooth      PW
     Min         239      77     24                 7884     1467     262
     Max         242      78     25                 7885     1470     265
     Sum        1917     621    193                63077    11753    2103

     Using Slab Decomposition



     bravais-lattice index     =            0
     lattice parameter (alat)  =       5.5533  a.u.
     unit-cell volume          =     171.2590 (a.u.)^3
     number of atoms/cell      =            2
     number of atomic types    =            2
     number of electrons       =        28.00
     number of Kohn-Sham states=           18
     kinetic-energy cutoff     =      64.0000  Ry
     charge density cutoff     =     782.0000  Ry
     scf convergence threshold =      1.0E-08
     mixing beta               =       0.7000
     number of iterations used =            8  plain     mixing
     Exchange-correlation= PBE
                           (   1   4   3   4   0   0   0)

     celldm(1)=   5.553300  celldm(2)=   0.000000  celldm(3)=   0.000000
     celldm(4)=   0.000000  celldm(5)=   0.000000  celldm(6)=   0.000000

     crystal axes: (cart. coord. in units of alat)
               a(1) = (   1.000000   0.000000   0.000000 )  
               a(2) = (   0.000000   1.000000   0.000000 )  
               a(3) = (   0.000000   0.000000   1.000000 )  

     reciprocal axes: (cart. coord. in units 2 pi/alat)
               b(1) = (  1.000000  0.000000  0.000000 )  
               b(2) = (  0.000000  1.000000  0.000000 )  
               b(3) = (  0.000000  0.000000  1.000000 )  


     PseudoPot. # 1 for Fe read from file:
     ./Fe.pbe-spn-kjpaw_psl.0.2.1.UPF
     MD5 check sum: e86618425769142926afa95317d90200
     Pseudo is Projector augmented-wave + core cor, Zval = 16.0
     Generated using "atomic" code by A. Dal Corso  v.5.0.99 svn rev. 10869
     Shape of augmentation charge: PSQ
     Using radial grid of 1191 points,  6 beta functions with: 
                l(1) =   0
                l(2) =   0
                l(3) =   1
                l(4) =   1
                l(5) =   2
                l(6) =   2
     Q(r) pseudized with 0 coefficients 


     PseudoPot. # 2 for Ti read from file:
     ./Ti_pbe_v1.4.uspp.F.UPF
     MD5 check sum: 88a00a6731bd790ddea75d31a80cb452
     Pseudo is Ultrasoft + core correction, Zval = 12.0
     Generated by new atomic code, or converted to UPF format
     Using radial grid of  851 points,  6 beta functions with: 
                l(1) =   0
                l(2) =   0
                l(3) =   1
                l(4) =   1
                l(5) =   2
                l(6) =   2
     Q(r) pseudized with  6 coefficients,  rinner =    1.000   1.000   1.000
                                                       1.000   1.000

     atomic species   valence    mass     pseudopotential
     Fe               16.00    55.84500     Fe( 1.00)
     Ti               12.00    47.86700     Ti( 1.00)

     48 Sym. Ops., with inversion, found



   Cartesian axes

     site n.     atom                  positions (alat units)
         1        Fe     tau(   1) = (   0.5000000   0.5000000   0.5000000  )
         2        Ti     tau(   2) = (   0.0000000   0.0000000   0.0000000  )

     number of k points=   120  Marzari-Vanderbilt smearing, width (Ry)=  0.0050

     Number of k-points >= 100: set verbosity='high' to print them.

     Dense  grid:    63077 G-vectors     FFT dimensions: (  50,  50,  50)

     Smooth grid:    11753 G-vectors     FFT dimensions: (  30,  30,  30)

     Estimated max dynamical RAM per process >      39.59 MB

     Estimated total dynamical RAM >     316.70 MB

     Check: negative core charge=   -0.000015

     Initial potential from superposition of free atoms

     starting charge      26.9995, renormalised to      28.0000

     negative rho (up, down):  1.188E-03 0.000E+00
     Starting wfcs are   23 randomized atomic wfcs
     Checking if some PAW data can be deallocated... 

     total cpu time spent up to now is        1.1 secs

     per-process dynamical memory:   140.8 Mb

     Self-consistent Calculation

     iteration #  1     ecut=    64.00 Ry     beta= 0.70
     Davidson diagonalization with overlap
     ethr =  1.00E-02,  avg # of iterations =  2.1

     negative rho (up, down):  2.078E-04 0.000E+00

     total cpu time spent up to now is        1.9 secs

     total energy              =    -434.92601988 Ry
     estimated scf accuracy    <      17.42012843 Ry

     iteration #  2     ecut=    64.00 Ry     beta= 0.70
     Davidson diagonalization with overlap
     ethr =  1.00E-02,  avg # of iterations =  6.0

     negative rho (up, down):  7.313E-05 0.000E+00

     total cpu time spent up to now is        3.4 secs

     total energy              =    -448.55913777 Ry
     estimated scf accuracy    <      65.73733432 Ry

     iteration #  3     ecut=    64.00 Ry     beta= 0.70
     Davidson diagonalization with overlap
     ethr =  1.00E-02,  avg # of iterations =  3.1

     negative rho (up, down):  1.537E-04 0.000E+00

     total cpu time spent up to now is        4.5 secs

     total energy              =    -448.57792536 Ry
     estimated scf accuracy    <      16.75203750 Ry

     iteration #  4     ecut=    64.00 Ry     beta= 0.70
     Davidson diagonalization with overlap
     ethr =  1.00E-02,  avg # of iterations =  2.1

     negative rho (up, down):  1.921E-04 0.000E+00

     total cpu time spent up to now is        5.3 secs

     total energy              =    -449.10485285 Ry
     estimated scf accuracy    <       4.68060445 Ry

     iteration #  5     ecut=    64.00 Ry     beta= 0.70
     Davidson diagonalization with overlap
     ethr =  1.00E-02,  avg # of iterations =  1.0

     negative rho (up, down):  2.101E-04 0.000E+00

     total cpu time spent up to now is        6.0 secs

     total energy              =    -449.12302982 Ry
     estimated scf accuracy    <       4.28690721 Ry

     iteration #  6     ecut=    64.00 Ry     beta= 0.70
     Davidson diagonalization with overlap
     ethr =  1.00E-02,  avg # of iterations =  1.0

     negative rho (up, down):  7.224E-04 0.000E+00

     total cpu time spent up to now is        6.7 secs

     total energy              =    -448.27415884 Ry
     estimated scf accuracy    <       4.34952999 Ry

     iteration #  7     ecut=    64.00 Ry     beta= 0.70
     Davidson diagonalization with overlap
     ethr =  1.00E-02,  avg # of iterations =  1.7

     negative rho (up, down):  7.299E-04 0.000E+00

     total cpu time spent up to now is        7.5 secs

     total energy              =    -448.56697059 Ry
     estimated scf accuracy    <       0.13796053 Ry

     iteration #  8     ecut=    64.00 Ry     beta= 0.70
     Davidson diagonalization with overlap
     ethr =  4.93E-04,  avg # of iterations =  4.5

     negative rho (up, down):  1.260E-03 0.000E+00

     total cpu time spent up to now is        8.5 secs

     total energy              =    -448.56952817 Ry
     estimated scf accuracy    <       0.12549690 Ry

     iteration #  9     ecut=    64.00 Ry     beta= 0.70
     Davidson diagonalization with overlap
     ethr =  4.48E-04,  avg # of iterations =  3.6

     negative rho (up, down):  9.707E-04 0.000E+00

     total cpu time spent up to now is        9.6 secs

     total energy              =    -448.48075488 Ry
     estimated scf accuracy    <       0.74424902 Ry

     iteration # 10     ecut=    64.00 Ry     beta= 0.70
     Davidson diagonalization with overlap
     ethr =  4.48E-04,  avg # of iterations =  4.2

     negative rho (up, down):  9.353E-04 0.000E+00

     total cpu time spent up to now is       10.6 secs

     total energy              =    -448.58862439 Ry
     estimated scf accuracy    <       0.71639437 Ry

     iteration # 11     ecut=    64.00 Ry     beta= 0.70
     Davidson diagonalization with overlap
     ethr =  4.48E-04,  avg # of iterations =  1.1

     negative rho (up, down):  7.688E-04 0.000E+00

     total cpu time spent up to now is       11.3 secs

     total energy              =    -448.57708220 Ry
     estimated scf accuracy    <       0.21626770 Ry

     iteration # 12     ecut=    64.00 Ry     beta= 0.70
     Davidson diagonalization with overlap
     ethr =  4.48E-04,  avg # of iterations =  2.0

     negative rho (up, down):  7.751E-04 0.000E+00

     total cpu time spent up to now is       12.1 secs

     total energy              =    -448.56189991 Ry
     estimated scf accuracy    <       0.15934079 Ry

     iteration # 13     ecut=    64.00 Ry     beta= 0.70
     Davidson diagonalization with overlap
     ethr =  4.48E-04,  avg # of iterations =  2.7

     negative rho (up, down):  7.531E-04 0.000E+00

     total cpu time spent up to now is       12.9 secs

     total energy              =    -448.58294785 Ry
     estimated scf accuracy    <       0.03210819 Ry

     iteration # 14     ecut=    64.00 Ry     beta= 0.70
     Davidson diagonalization with overlap
     ethr =  1.15E-04,  avg # of iterations =  1.9

     negative rho (up, down):  9.717E-04 0.000E+00

     total cpu time spent up to now is       13.7 secs

     total energy              =    -448.56515860 Ry
     estimated scf accuracy    <       0.05531917 Ry

     iteration # 15     ecut=    64.00 Ry     beta= 0.70
     Davidson diagonalization with overlap
     ethr =  1.15E-04,  avg # of iterations =  4.0

     negative rho (up, down):  8.671E-04 0.000E+00

     total cpu time spent up to now is       14.7 secs

     total energy              =    -448.56375744 Ry
     estimated scf accuracy    <       0.22158277 Ry

     iteration # 16     ecut=    64.00 Ry     beta= 0.70
     Davidson diagonalization with overlap
     ethr =  1.15E-04,  avg # of iterations =  3.5

     negative rho (up, down):  8.707E-04 0.000E+00

     total cpu time spent up to now is       15.6 secs

     total energy              =    -448.57944929 Ry
     estimated scf accuracy    <       0.00387506 Ry

     iteration # 17     ecut=    64.00 Ry     beta= 0.70
     Davidson diagonalization with overlap
     ethr =  1.38E-05,  avg # of iterations =  1.9

     negative rho (up, down):  8.684E-04 0.000E+00

     total cpu time spent up to now is       16.3 secs

     total energy              =    -448.57917003 Ry
     estimated scf accuracy    <       0.00545345 Ry

     iteration # 18     ecut=    64.00 Ry     beta= 0.70
     Davidson diagonalization with overlap
     ethr =  1.38E-05,  avg # of iterations =  1.0

     negative rho (up, down):  8.785E-04 0.000E+00

     total cpu time spent up to now is       17.0 secs

     total energy              =    -448.57925839 Ry
     estimated scf accuracy    <       0.00062982 Ry

     iteration # 19     ecut=    64.00 Ry     beta= 0.70
     Davidson diagonalization with overlap
     ethr =  2.25E-06,  avg # of iterations =  2.9

     negative rho (up, down):  8.768E-04 0.000E+00

     total cpu time spent up to now is       17.8 secs

     total energy              =    -448.57932010 Ry
     estimated scf accuracy    <       0.00000830 Ry

     iteration # 20     ecut=    64.00 Ry     beta= 0.70
     Davidson diagonalization with overlap
     ethr =  2.96E-08,  avg # of iterations =  5.5

     negative rho (up, down):  8.751E-04 0.000E+00

     total cpu time spent up to now is       19.0 secs

     total energy              =    -448.57932735 Ry
     estimated scf accuracy    <       0.00000977 Ry

     iteration # 21     ecut=    64.00 Ry     beta= 0.70
     Davidson diagonalization with overlap
     ethr =  2.96E-08,  avg # of iterations =  1.0

     negative rho (up, down):  8.748E-04 0.000E+00

     total cpu time spent up to now is       19.7 secs

     total energy              =    -448.57932692 Ry
     estimated scf accuracy    <       0.00000212 Ry

     iteration # 22     ecut=    64.00 Ry     beta= 0.70
     Davidson diagonalization with overlap
     ethr =  7.57E-09,  avg # of iterations =  1.6

     negative rho (up, down):  8.746E-04 0.000E+00

     total cpu time spent up to now is       20.5 secs

     total energy              =    -448.57932670 Ry
     estimated scf accuracy    <       0.00000065 Ry

     iteration # 23     ecut=    64.00 Ry     beta= 0.70
     Davidson diagonalization with overlap
     ethr =  2.34E-09,  avg # of iterations =  3.1

     negative rho (up, down):  8.746E-04 0.000E+00

     total cpu time spent up to now is       21.4 secs

     total energy              =    -448.57932672 Ry
     estimated scf accuracy    <       0.00000011 Ry

     iteration # 24     ecut=    64.00 Ry     beta= 0.70
     Davidson diagonalization with overlap
     ethr =  3.85E-10,  avg # of iterations =  4.4

     negative rho (up, down):  8.745E-04 0.000E+00

     total cpu time spent up to now is       22.4 secs

     total energy              =    -448.57932674 Ry
     estimated scf accuracy    <       0.00000002 Ry

     iteration # 25     ecut=    64.00 Ry     beta= 0.70
     Davidson diagonalization with overlap
     ethr =  6.32E-11,  avg # of iterations =  3.7

     negative rho (up, down):  8.745E-04 0.000E+00

     total cpu time spent up to now is       23.3 secs

     End of self-consistent calculation

     Number of k-points >= 100: set verbosity='high' to print the bands.

     the Fermi energy is    17.7274 ev

!    total energy              =    -448.57932675 Ry
     estimated scf accuracy    <          2.5E-10 Ry
     smearing contrib. (-TS)   =      -0.00001588 Ry
     internal energy E=F+TS    =    -448.57931087 Ry

     The total energy is F=E-TS. E is the sum of the following terms:
     one-electron contribution =    -151.34234953 Ry
     hartree contribution      =      91.62516339 Ry
     xc contribution           =     -52.88914003 Ry
     ewald contribution        =    -259.82070277 Ry
     one-center paw contrib.   =     -76.15228192 Ry

     convergence has been achieved in  25 iterations

     negative rho (up, down):  8.745E-04 0.000E+00

     Forces acting on atoms (cartesian axes, Ry/au):

     atom    1 type  1   force =     0.00000000    0.00000000    0.00000000
     atom    2 type  2   force =     0.00000000    0.00000000    0.00000000

     Total force =     0.000000     Total SCF correction =     0.000000


     Computing stress (Cartesian axis) and pressure


     negative rho (up, down):  8.745E-04 0.000E+00
          total   stress  (Ry/bohr**3)                   (kbar)     P=       20.38
   0.00013855   0.00000000   0.00000000           20.38        0.00        0.00
   0.00000000   0.00013855   0.00000000            0.00       20.38        0.00
   0.00000000   0.00000000   0.00013855            0.00        0.00       20.38


     Writing all to output data dir ./TiFe.save/ :
     XML data file, charge density, pseudopotentials, collected wavefunctions

     init_run     :      0.82s CPU      0.86s WALL (       1 calls)
     electrons    :     21.43s CPU     22.25s WALL (       1 calls)
     forces       :      0.11s CPU      0.11s WALL (       1 calls)
     stress       :      0.53s CPU      0.53s WALL (       1 calls)

     Called by init_run:
     wfcinit      :      0.29s CPU      0.30s WALL (       1 calls)
     potinit      :      0.22s CPU      0.23s WALL (       1 calls)
     hinit0       :      0.24s CPU      0.24s WALL (       1 calls)

     Called by electrons:
     c_bands      :     15.45s CPU     16.05s WALL (      25 calls)
     sum_band     :      3.48s CPU      3.60s WALL (      25 calls)
     v_of_rho     :      0.16s CPU      0.17s WALL (      26 calls)
     newd         :      1.06s CPU      1.08s WALL (      26 calls)
     PAW_pot      :      1.33s CPU      1.35s WALL (      26 calls)
     mix_rho      :      0.02s CPU      0.02s WALL (      25 calls)

     Called by c_bands:
     init_us_2    :      0.34s CPU      0.36s WALL (    6360 calls)
     cegterg      :     14.82s CPU     15.39s WALL (    3000 calls)

     Called by *egterg:
     cdiaghg      :      3.13s CPU      3.22s WALL (   11379 calls)
     h_psi        :     10.15s CPU     10.58s WALL (   11499 calls)
     s_psi        :      0.26s CPU      0.27s WALL (   11499 calls)
     g_psi        :      0.05s CPU      0.06s WALL (    8379 calls)

     Called by h_psi:
     h_psi:calbec :      0.50s CPU      0.52s WALL (   11499 calls)
     vloc_psi     :      9.29s CPU      9.68s WALL (   11499 calls)
     add_vuspsi   :      0.30s CPU      0.31s WALL (   11499 calls)

     General routines
     calbec       :      0.74s CPU      0.77s WALL (   16539 calls)
     fft          :      0.24s CPU      0.25s WALL (     361 calls)
     ffts         :      0.15s CPU      0.15s WALL (      51 calls)
     fftw         :      8.54s CPU      8.90s WALL (  326940 calls)
     interpolate  :      0.16s CPU      0.16s WALL (      26 calls)

     Parallel routines

     PWSCF        :     23.20s CPU     26.69s WALL


   This run was terminated on:  22:20:54  27Oct2025            

=------------------------------------------------------------------------------=
   JOB DONE.
=------------------------------------------------------------------------------=
Note: The following floating-point exceptions are signalling: IEEE_UNDERFLOW_FLAG IEEE_DENORMAL
Note: The following floating-point exceptions are signalling: IEEE_UNDERFLOW_FLAG IEEE_DENORMAL
Note: The following floating-point exceptions are signalling: IEEE_UNDERFLOW_FLAG IEEE_DENORMAL
Note: The following floating-point exceptions are signalling: IEEE_UNDERFLOW_FLAG IEEE_DENORMAL
Note: The following floating-point exceptions are signalling: IEEE_UNDERFLOW_FLAG IEEE_DENORMAL
Note: The following floating-point exceptions are signalling: IEEE_UNDERFLOW_FLAG IEEE_DENORMAL
Note: The following floating-point exceptions are signalling: IEEE_UNDERFLOW_FLAG IEEE_DENORMAL
Note: The following floating-point exceptions are signalling: IEEE_UNDERFLOW_FLAG IEEE_DENORMAL
