
     Program PWSCF v.7.4 starts on 27Oct2025 at 21:56:52 

     This program is part of the open-source Quantum ESPRESSO suite
     for quantum simulation of materials; please cite
         "P. Giannozzi et al., J. Phys.:Condens. Matter 21 395502 (2009);
         "P. Giannozzi et al., J. Phys.:Condens. Matter 29 465901 (2017);
         "P. Giannozzi et al., J. Chem. Phys. 152 154105 (2020);
          URL http://www.quantum-espresso.org", 
     in publications or presentations arising from this work. More details at
     http://www.quantum-espresso.org/quote

     Parallel version (MPI & OpenMP), running on       8 processor cores
     Number of MPI processes:                 8
     Threads/MPI process:                     1

     MPI processes distributed on     1 nodes
     183548 MiB available memory on the printing compute node when the environment starts

     Reading input from TiFe_kmesh_convergence/TiFe2_k444.in

     Current dimensions of program PWSCF are:
     Max number of different atomic species (ntypx) = 10
     Max number of k-points (npk) =  40000
     Max angular momentum in pseudopotentials (lmaxx) =  4
     file Fe.pbe-spn-kjpaw_psl.0.2.1.UPF: wavefunction(s)  3D renormalized

     IMPORTANT: XC functional enforced from input :
     Exchange-correlation= PBE
                           (   1   4   3   4   0   0   0)
     Any further DFT definition will be discarded
     Please, verify this is what you really want

     Message from routine setup:
     using ibrav=0 with symmetry is DISCOURAGED, use correct ibrav instead

     R & G space division:  proc/nbgrp/npool/nimage =       8
     Subspace diagonalization in iterative solution of the eigenvalue problem:
     a serial algorithm will be used


     Parallelization info
     --------------------
     sticks:   dense  smooth     PW     G-vecs:    dense   smooth      PW
     Min         239      77     24                 7884     1467     262
     Max         242      78     25                 7885     1470     265
     Sum        1917     621    193                63077    11753    2103

     Using Slab Decomposition



     bravais-lattice index     =            0
     lattice parameter (alat)  =       5.5533  a.u.
     unit-cell volume          =     171.2590 (a.u.)^3
     number of atoms/cell      =            2
     number of atomic types    =            2
     number of electrons       =        28.00
     number of Kohn-Sham states=           18
     kinetic-energy cutoff     =      64.0000  Ry
     charge density cutoff     =     782.0000  Ry
     scf convergence threshold =      1.0E-08
     mixing beta               =       0.7000
     number of iterations used =            8  plain     mixing
     Exchange-correlation= PBE
                           (   1   4   3   4   0   0   0)

     celldm(1)=   5.553300  celldm(2)=   0.000000  celldm(3)=   0.000000
     celldm(4)=   0.000000  celldm(5)=   0.000000  celldm(6)=   0.000000

     crystal axes: (cart. coord. in units of alat)
               a(1) = (   1.000000   0.000000   0.000000 )  
               a(2) = (   0.000000   1.000000   0.000000 )  
               a(3) = (   0.000000   0.000000   1.000000 )  

     reciprocal axes: (cart. coord. in units 2 pi/alat)
               b(1) = (  1.000000  0.000000  0.000000 )  
               b(2) = (  0.000000  1.000000  0.000000 )  
               b(3) = (  0.000000  0.000000  1.000000 )  


     PseudoPot. # 1 for Fe read from file:
     ./Fe.pbe-spn-kjpaw_psl.0.2.1.UPF
     MD5 check sum: e86618425769142926afa95317d90200
     Pseudo is Projector augmented-wave + core cor, Zval = 16.0
     Generated using "atomic" code by A. Dal Corso  v.5.0.99 svn rev. 10869
     Shape of augmentation charge: PSQ
     Using radial grid of 1191 points,  6 beta functions with: 
                l(1) =   0
                l(2) =   0
                l(3) =   1
                l(4) =   1
                l(5) =   2
                l(6) =   2
     Q(r) pseudized with 0 coefficients 


     PseudoPot. # 2 for Ti read from file:
     ./Ti_pbe_v1.4.uspp.F.UPF
     MD5 check sum: 88a00a6731bd790ddea75d31a80cb452
     Pseudo is Ultrasoft + core correction, Zval = 12.0
     Generated by new atomic code, or converted to UPF format
     Using radial grid of  851 points,  6 beta functions with: 
                l(1) =   0
                l(2) =   0
                l(3) =   1
                l(4) =   1
                l(5) =   2
                l(6) =   2
     Q(r) pseudized with  6 coefficients,  rinner =    1.000   1.000   1.000
                                                       1.000   1.000

     atomic species   valence    mass     pseudopotential
     Fe               16.00    55.84500     Fe( 1.00)
     Ti               12.00    47.86700     Ti( 1.00)

     48 Sym. Ops., with inversion, found



   Cartesian axes

     site n.     atom                  positions (alat units)
         1        Fe     tau(   1) = (   0.5000000   0.5000000   0.5000000  )
         2        Ti     tau(   2) = (   0.0000000   0.0000000   0.0000000  )

     number of k points=    10  Marzari-Vanderbilt smearing, width (Ry)=  0.0050
                       cart. coord. in units 2pi/alat
        k(    1) = (   0.0000000   0.0000000   0.0000000), wk =   0.0312500
        k(    2) = (   0.0000000   0.0000000   0.2500000), wk =   0.1875000
        k(    3) = (   0.0000000   0.0000000  -0.5000000), wk =   0.0937500
        k(    4) = (   0.0000000   0.2500000   0.2500000), wk =   0.3750000
        k(    5) = (   0.0000000   0.2500000  -0.5000000), wk =   0.3750000
        k(    6) = (   0.0000000  -0.5000000  -0.5000000), wk =   0.0937500
        k(    7) = (   0.2500000   0.2500000   0.2500000), wk =   0.2500000
        k(    8) = (   0.2500000   0.2500000  -0.5000000), wk =   0.3750000
        k(    9) = (   0.2500000  -0.5000000  -0.5000000), wk =   0.1875000
        k(   10) = (  -0.5000000  -0.5000000  -0.5000000), wk =   0.0312500

     Dense  grid:    63077 G-vectors     FFT dimensions: (  50,  50,  50)

     Smooth grid:    11753 G-vectors     FFT dimensions: (  30,  30,  30)

     Estimated max dynamical RAM per process >      34.00 MB

     Estimated total dynamical RAM >     271.99 MB

     Check: negative core charge=   -0.000015

     Initial potential from superposition of free atoms

     starting charge      26.9995, renormalised to      28.0000

     negative rho (up, down):  1.188E-03 0.000E+00
     Starting wfcs are   23 randomized atomic wfcs
     Checking if some PAW data can be deallocated... 

     total cpu time spent up to now is        0.8 secs

     per-process dynamical memory:   140.7 Mb

     Self-consistent Calculation

     iteration #  1     ecut=    64.00 Ry     beta= 0.70
     Davidson diagonalization with overlap
     ethr =  1.00E-02,  avg # of iterations =  2.2

     negative rho (up, down):  2.040E-04 0.000E+00

     total cpu time spent up to now is        1.0 secs

     total energy              =    -435.23581666 Ry
     estimated scf accuracy    <      17.06139706 Ry

     iteration #  2     ecut=    64.00 Ry     beta= 0.70
     Davidson diagonalization with overlap
     ethr =  1.00E-02,  avg # of iterations =  6.0

     negative rho (up, down):  7.865E-05 0.000E+00

     total cpu time spent up to now is        1.3 secs

     total energy              =    -448.52640626 Ry
     estimated scf accuracy    <      64.78390727 Ry

     iteration #  3     ecut=    64.00 Ry     beta= 0.70
     Davidson diagonalization with overlap
     ethr =  1.00E-02,  avg # of iterations =  3.2

     negative rho (up, down):  1.716E-04 0.000E+00

     total cpu time spent up to now is        1.6 secs

     total energy              =    -448.54388752 Ry
     estimated scf accuracy    <      16.58915197 Ry

     iteration #  4     ecut=    64.00 Ry     beta= 0.70
     Davidson diagonalization with overlap
     ethr =  1.00E-02,  avg # of iterations =  2.0

     negative rho (up, down):  2.066E-04 0.000E+00

     total cpu time spent up to now is        1.8 secs

     total energy              =    -449.05490690 Ry
     estimated scf accuracy    <       4.83010251 Ry

     iteration #  5     ecut=    64.00 Ry     beta= 0.70
     Davidson diagonalization with overlap
     ethr =  1.00E-02,  avg # of iterations =  1.1

     negative rho (up, down):  1.821E-04 0.000E+00

     total cpu time spent up to now is        2.0 secs

     total energy              =    -449.04800653 Ry
     estimated scf accuracy    <       4.27645410 Ry

     iteration #  6     ecut=    64.00 Ry     beta= 0.70
     Davidson diagonalization with overlap
     ethr =  1.00E-02,  avg # of iterations =  1.2

     negative rho (up, down):  3.300E-04 0.000E+00

     total cpu time spent up to now is        2.3 secs

     total energy              =    -448.84897385 Ry
     estimated scf accuracy    <       3.54087562 Ry

     iteration #  7     ecut=    64.00 Ry     beta= 0.70
     Davidson diagonalization with overlap
     ethr =  1.00E-02,  avg # of iterations =  1.1

     negative rho (up, down):  9.747E-04 0.000E+00

     total cpu time spent up to now is        2.5 secs

     total energy              =    -448.10005700 Ry
     estimated scf accuracy    <       2.56698779 Ry

     iteration #  8     ecut=    64.00 Ry     beta= 0.70
     Davidson diagonalization with overlap
     ethr =  9.17E-03,  avg # of iterations =  3.2

     negative rho (up, down):  7.407E-04 0.000E+00

     total cpu time spent up to now is        2.7 secs

     total energy              =    -448.29251067 Ry
     estimated scf accuracy    <       3.45820032 Ry

     iteration #  9     ecut=    64.00 Ry     beta= 0.70
     Davidson diagonalization with overlap
     ethr =  9.17E-03,  avg # of iterations =  1.6

     negative rho (up, down):  6.778E-04 0.000E+00

     total cpu time spent up to now is        3.0 secs

     total energy              =    -448.59279140 Ry
     estimated scf accuracy    <       0.05561312 Ry

     iteration # 10     ecut=    64.00 Ry     beta= 0.70
     Davidson diagonalization with overlap
     ethr =  1.99E-04,  avg # of iterations =  4.0

     negative rho (up, down):  6.759E-04 0.000E+00

     total cpu time spent up to now is        3.3 secs

     total energy              =    -448.60983894 Ry
     estimated scf accuracy    <       1.36475901 Ry

     iteration # 11     ecut=    64.00 Ry     beta= 0.70
     Davidson diagonalization with overlap
     ethr =  1.99E-04,  avg # of iterations =  2.0

     negative rho (up, down):  7.018E-04 0.000E+00

     total cpu time spent up to now is        3.5 secs

     total energy              =    -448.58329780 Ry
     estimated scf accuracy    <       0.71873094 Ry

     iteration # 12     ecut=    64.00 Ry     beta= 0.70
     Davidson diagonalization with overlap
     ethr =  1.99E-04,  avg # of iterations =  3.0

     negative rho (up, down):  6.935E-04 0.000E+00

     total cpu time spent up to now is        3.7 secs

     total energy              =    -448.60229768 Ry
     estimated scf accuracy    <       0.25837174 Ry

     iteration # 13     ecut=    64.00 Ry     beta= 0.70
     Davidson diagonalization with overlap
     ethr =  1.99E-04,  avg # of iterations =  1.0

     negative rho (up, down):  7.380E-04 0.000E+00

     total cpu time spent up to now is        4.0 secs

     total energy              =    -448.58366596 Ry
     estimated scf accuracy    <       0.36118728 Ry

     iteration # 14     ecut=    64.00 Ry     beta= 0.70
     Davidson diagonalization with overlap
     ethr =  1.99E-04,  avg # of iterations =  1.7

     negative rho (up, down):  7.310E-04 0.000E+00

     total cpu time spent up to now is        4.2 secs

     total energy              =    -448.58768673 Ry
     estimated scf accuracy    <       0.11922077 Ry

     iteration # 15     ecut=    64.00 Ry     beta= 0.70
     Davidson diagonalization with overlap
     ethr =  1.99E-04,  avg # of iterations =  1.4

     negative rho (up, down):  7.923E-04 0.000E+00

     total cpu time spent up to now is        4.4 secs

     total energy              =    -448.57382779 Ry
     estimated scf accuracy    <       0.12393203 Ry

     iteration # 16     ecut=    64.00 Ry     beta= 0.70
     Davidson diagonalization with overlap
     ethr =  1.99E-04,  avg # of iterations =  1.9

     negative rho (up, down):  8.118E-04 0.000E+00

     total cpu time spent up to now is        4.7 secs

     total energy              =    -448.57595457 Ry
     estimated scf accuracy    <       0.02175001 Ry

     iteration # 17     ecut=    64.00 Ry     beta= 0.70
     Davidson diagonalization with overlap
     ethr =  7.77E-05,  avg # of iterations =  2.6

     negative rho (up, down):  8.731E-04 0.000E+00

     total cpu time spent up to now is        4.9 secs

     total energy              =    -448.57425954 Ry
     estimated scf accuracy    <       0.00727838 Ry

     iteration # 18     ecut=    64.00 Ry     beta= 0.70
     Davidson diagonalization with overlap
     ethr =  2.60E-05,  avg # of iterations =  4.0

     negative rho (up, down):  8.704E-04 0.000E+00

     total cpu time spent up to now is        5.2 secs

     total energy              =    -448.57626277 Ry
     estimated scf accuracy    <       0.00488282 Ry

     iteration # 19     ecut=    64.00 Ry     beta= 0.70
     Davidson diagonalization with overlap
     ethr =  1.74E-05,  avg # of iterations =  1.0

     negative rho (up, down):  8.678E-04 0.000E+00

     total cpu time spent up to now is        5.4 secs

     total energy              =    -448.57644994 Ry
     estimated scf accuracy    <       0.00454230 Ry

     iteration # 20     ecut=    64.00 Ry     beta= 0.70
     Davidson diagonalization with overlap
     ethr =  1.62E-05,  avg # of iterations =  1.0

     negative rho (up, down):  8.573E-04 0.000E+00

     total cpu time spent up to now is        5.6 secs

     total energy              =    -448.57624912 Ry
     estimated scf accuracy    <       0.00699950 Ry

     iteration # 21     ecut=    64.00 Ry     beta= 0.70
     Davidson diagonalization with overlap
     ethr =  1.62E-05,  avg # of iterations =  1.0

     negative rho (up, down):  8.475E-04 0.000E+00

     total cpu time spent up to now is        5.8 secs

     total energy              =    -448.57603129 Ry
     estimated scf accuracy    <       0.00420162 Ry

     iteration # 22     ecut=    64.00 Ry     beta= 0.70
     Davidson diagonalization with overlap
     ethr =  1.50E-05,  avg # of iterations =  1.0

     negative rho (up, down):  8.333E-04 0.000E+00

     total cpu time spent up to now is        6.0 secs

     total energy              =    -448.57580474 Ry
     estimated scf accuracy    <       0.00113427 Ry

     iteration # 23     ecut=    64.00 Ry     beta= 0.70
     Davidson diagonalization with overlap
     ethr =  4.05E-06,  avg # of iterations =  3.3

     negative rho (up, down):  8.565E-04 0.000E+00

     total cpu time spent up to now is        6.3 secs

     total energy              =    -448.57572493 Ry
     estimated scf accuracy    <       0.00378419 Ry

     iteration # 24     ecut=    64.00 Ry     beta= 0.70
     Davidson diagonalization with overlap
     ethr =  4.05E-06,  avg # of iterations =  3.2

     negative rho (up, down):  8.580E-04 0.000E+00

     total cpu time spent up to now is        6.5 secs

     total energy              =    -448.57603303 Ry
     estimated scf accuracy    <       0.00010547 Ry

     iteration # 25     ecut=    64.00 Ry     beta= 0.70
     Davidson diagonalization with overlap
     ethr =  3.77E-07,  avg # of iterations =  3.0

     negative rho (up, down):  8.626E-04 0.000E+00

     total cpu time spent up to now is        6.7 secs

     total energy              =    -448.57605656 Ry
     estimated scf accuracy    <       0.00011006 Ry

     iteration # 26     ecut=    64.00 Ry     beta= 0.70
     Davidson diagonalization with overlap
     ethr =  3.77E-07,  avg # of iterations =  2.0

     negative rho (up, down):  8.658E-04 0.000E+00

     total cpu time spent up to now is        7.0 secs

     total energy              =    -448.57604002 Ry
     estimated scf accuracy    <       0.00012809 Ry

     iteration # 27     ecut=    64.00 Ry     beta= 0.70
     Davidson diagonalization with overlap
     ethr =  3.77E-07,  avg # of iterations =  1.1

     negative rho (up, down):  8.699E-04 0.000E+00

     total cpu time spent up to now is        7.2 secs

     total energy              =    -448.57604169 Ry
     estimated scf accuracy    <       0.00001628 Ry

     iteration # 28     ecut=    64.00 Ry     beta= 0.70
     Davidson diagonalization with overlap
     ethr =  5.81E-08,  avg # of iterations =  3.4

     negative rho (up, down):  8.708E-04 0.000E+00

     total cpu time spent up to now is        7.4 secs

     total energy              =    -448.57604403 Ry
     estimated scf accuracy    <       0.00000017 Ry

     iteration # 29     ecut=    64.00 Ry     beta= 0.70
     Davidson diagonalization with overlap
     ethr =  5.90E-10,  avg # of iterations =  6.0

     negative rho (up, down):  8.704E-04 0.000E+00

     total cpu time spent up to now is        7.7 secs

     total energy              =    -448.57604436 Ry
     estimated scf accuracy    <       0.00000020 Ry

     iteration # 30     ecut=    64.00 Ry     beta= 0.70
     Davidson diagonalization with overlap
     ethr =  5.90E-10,  avg # of iterations =  1.9

     negative rho (up, down):  8.703E-04 0.000E+00

     total cpu time spent up to now is        7.9 secs

     End of self-consistent calculation

          k = 0.0000 0.0000 0.0000 (  1419 PWs)   bands (ev):

   -69.2704 -39.0763 -35.3220 -35.3220 -35.3220 -15.1729 -15.1729 -15.1729
    10.1527  13.8516  13.8516  16.6233  16.6233  16.6233  19.0082  19.0082
    20.9830  20.9830

          k = 0.0000 0.0000 0.2500 (  1446 PWs)   bands (ev):

   -69.2688 -39.0631 -35.3384 -35.3198 -35.3198 -15.3563 -15.1619 -15.1619
    11.3911  14.3807  14.4494  16.5574  16.5574  16.8720  18.2656  19.1693
    19.6587  19.6587

          k = 0.0000 0.0000-0.5000 (  1462 PWs)   bands (ev):

   -69.2672 -39.0499 -35.3539 -35.3177 -35.3177 -15.5352 -15.1508 -15.1508
    13.8391  14.1058  15.5048  16.5500  16.5500  17.0537  17.1692  18.5596
    18.6422  18.6422

          k = 0.0000 0.2500 0.2500 (  1480 PWs)   bands (ev):

   -69.2672 -39.0445 -35.3446 -35.3365 -35.3182 -15.3449 -15.3237 -15.1477
    12.3705  14.5346  15.1484  16.0352  16.3092  16.7469  18.6856  18.7689
    19.0994  19.5253

          k = 0.0000 0.2500-0.5000 (  1498 PWs)   bands (ev):

   -69.2656 -39.0259 -35.3605 -35.3427 -35.3163 -15.5029 -15.3123 -15.1334
    13.7669  14.2042  15.9312  15.9581  16.0705  16.7606  18.0757  18.5480
    19.5184  20.0247

          k = 0.0000-0.5000-0.5000 (  1492 PWs)   bands (ev):

   -69.2639 -39.0017 -35.3667 -35.3667 -35.3142 -15.4704 -15.4704 -15.1159
    13.3583  13.9355  15.4657  15.4657  17.7116  18.1664  18.7290  18.7290
    19.4634  20.9398

          k = 0.2500 0.2500 0.2500 (  1469 PWs)   bands (ev):

   -69.2655 -39.0247 -35.3416 -35.3416 -35.3364 -15.3246 -15.3117 -15.3117
    13.3562  15.2777  15.2777  15.7511  15.7976  15.7976  18.9398  18.9398
    19.7753  19.7753

          k = 0.2500 0.2500-0.5000 (  1488 PWs)   bands (ev):

   -69.2639 -39.0047 -35.3619 -35.3406 -35.3389 -15.4806 -15.2996 -15.2956
    14.4334  14.7921  15.4025  15.5701  15.9427  16.5026  18.0886  18.5449
    19.3727  20.6798

          k = 0.2500-0.5000-0.5000 (  1460 PWs)   bands (ev):

   -69.2621 -38.9834 -35.3629 -35.3629 -35.3367 -15.4583 -15.4583 -15.2828
    14.3272  14.7292  15.3619  15.3619  16.9647  16.9647  17.7312  18.1205
    20.1407  21.2850

          k =-0.5000-0.5000-0.5000 (  1472 PWs)   bands (ev):

   -69.2605 -38.9649 -35.3598 -35.3598 -35.3598 -15.4462 -15.4462 -15.4462
    15.4821  15.4821  15.4821  15.7627  15.7627  15.7627  17.7507  17.7507
    21.3266  21.3266

     the Fermi energy is    17.7140 ev

!    total energy              =    -448.57604438 Ry
     estimated scf accuracy    <          4.7E-09 Ry
     smearing contrib. (-TS)   =      -0.00025581 Ry
     internal energy E=F+TS    =    -448.57578857 Ry

     The total energy is F=E-TS. E is the sum of the following terms:
     one-electron contribution =    -151.31675078 Ry
     hartree contribution      =      91.60646606 Ry
     xc contribution           =     -52.89247604 Ry
     ewald contribution        =    -259.82070277 Ry
     one-center paw contrib.   =     -76.15232504 Ry

     convergence has been achieved in  30 iterations

     negative rho (up, down):  8.703E-04 0.000E+00

     Forces acting on atoms (cartesian axes, Ry/au):

     atom    1 type  1   force =     0.00000000    0.00000000    0.00000000
     atom    2 type  2   force =     0.00000000    0.00000000    0.00000000

     Total force =     0.000000     Total SCF correction =     0.000000


     Computing stress (Cartesian axis) and pressure


     negative rho (up, down):  8.703E-04 0.000E+00
          total   stress  (Ry/bohr**3)                   (kbar)     P=       22.53
   0.00015313   0.00000000   0.00000000           22.53        0.00        0.00
   0.00000000   0.00015313   0.00000000            0.00       22.53        0.00
   0.00000000   0.00000000   0.00015313            0.00        0.00       22.53


     Writing all to output data dir ./TiFe.save/ :
     XML data file, charge density, pseudopotentials, collected wavefunctions

     init_run     :      0.57s CPU      0.60s WALL (       1 calls)
     electrons    :      6.94s CPU      7.16s WALL (       1 calls)
     forces       :      0.07s CPU      0.07s WALL (       1 calls)
     stress       :      0.45s CPU      0.46s WALL (       1 calls)

     Called by init_run:
     wfcinit      :      0.03s CPU      0.03s WALL (       1 calls)
     potinit      :      0.22s CPU      0.23s WALL (       1 calls)
     hinit0       :      0.24s CPU      0.25s WALL (       1 calls)

     Called by electrons:
     c_bands      :      1.64s CPU      1.70s WALL (      30 calls)
     sum_band     :      2.02s CPU      2.05s WALL (      30 calls)
     v_of_rho     :      0.20s CPU      0.22s WALL (      31 calls)
     newd         :      1.35s CPU      1.37s WALL (      31 calls)
     PAW_pot      :      1.77s CPU      1.80s WALL (      31 calls)
     mix_rho      :      0.03s CPU      0.03s WALL (      30 calls)

     Called by c_bands:
     init_us_2    :      0.04s CPU      0.04s WALL (     630 calls)
     cegterg      :      1.56s CPU      1.62s WALL (     300 calls)

     Called by *egterg:
     cdiaghg      :      0.29s CPU      0.30s WALL (    1011 calls)
     h_psi        :      1.10s CPU      1.15s WALL (    1021 calls)
     s_psi        :      0.03s CPU      0.03s WALL (    1021 calls)
     g_psi        :      0.01s CPU      0.01s WALL (     711 calls)

     Called by h_psi:
     h_psi:calbec :      0.05s CPU      0.05s WALL (    1021 calls)
     vloc_psi     :      1.01s CPU      1.06s WALL (    1021 calls)
     add_vuspsi   :      0.03s CPU      0.03s WALL (    1021 calls)

     General routines
     calbec       :      0.08s CPU      0.08s WALL (    1491 calls)
     fft          :      0.26s CPU      0.27s WALL (     426 calls)
     ffts         :      0.15s CPU      0.15s WALL (      61 calls)
     fftw         :      0.91s CPU      0.96s WALL (   30704 calls)
     interpolate  :      0.16s CPU      0.16s WALL (      31 calls)

     Parallel routines

     PWSCF        :      8.22s CPU      8.89s WALL


   This run was terminated on:  21:57: 1  27Oct2025            

=------------------------------------------------------------------------------=
   JOB DONE.
=------------------------------------------------------------------------------=
Note: The following floating-point exceptions are signalling: IEEE_UNDERFLOW_FLAG IEEE_DENORMAL
Note: The following floating-point exceptions are signalling: IEEE_UNDERFLOW_FLAG IEEE_DENORMAL
Note: The following floating-point exceptions are signalling: IEEE_UNDERFLOW_FLAG IEEE_DENORMAL
Note: The following floating-point exceptions are signalling: IEEE_UNDERFLOW_FLAG IEEE_DENORMAL
Note: The following floating-point exceptions are signalling: IEEE_UNDERFLOW_FLAG IEEE_DENORMAL
Note: The following floating-point exceptions are signalling: IEEE_UNDERFLOW_FLAG IEEE_DENORMAL
Note: The following floating-point exceptions are signalling: IEEE_UNDERFLOW_FLAG IEEE_DENORMAL
Note: The following floating-point exceptions are signalling: IEEE_UNDERFLOW_FLAG IEEE_DENORMAL
