
     Program PWSCF v.7.4 starts on 27Oct2025 at 22:20:54 

     This program is part of the open-source Quantum ESPRESSO suite
     for quantum simulation of materials; please cite
         "P. Giannozzi et al., J. Phys.:Condens. Matter 21 395502 (2009);
         "P. Giannozzi et al., J. Phys.:Condens. Matter 29 465901 (2017);
         "P. Giannozzi et al., J. Chem. Phys. 152 154105 (2020);
          URL http://www.quantum-espresso.org", 
     in publications or presentations arising from this work. More details at
     http://www.quantum-espresso.org/quote

     Parallel version (MPI & OpenMP), running on       8 processor cores
     Number of MPI processes:                 8
     Threads/MPI process:                     1

     MPI processes distributed on     1 nodes
     217990 MiB available memory on the printing compute node when the environment starts

     Reading input from TiFe_kmesh_convergence/TiFe2_k202020.in

     Current dimensions of program PWSCF are:
     Max number of different atomic species (ntypx) = 10
     Max number of k-points (npk) =  40000
     Max angular momentum in pseudopotentials (lmaxx) =  4
     file Fe.pbe-spn-kjpaw_psl.0.2.1.UPF: wavefunction(s)  3D renormalized

     IMPORTANT: XC functional enforced from input :
     Exchange-correlation= PBE
                           (   1   4   3   4   0   0   0)
     Any further DFT definition will be discarded
     Please, verify this is what you really want

     Message from routine setup:
     using ibrav=0 with symmetry is DISCOURAGED, use correct ibrav instead

     R & G space division:  proc/nbgrp/npool/nimage =       8
     Subspace diagonalization in iterative solution of the eigenvalue problem:
     a serial algorithm will be used


     Parallelization info
     --------------------
     sticks:   dense  smooth     PW     G-vecs:    dense   smooth      PW
     Min         239      77     24                 7884     1467     262
     Max         242      78     25                 7885     1470     265
     Sum        1917     621    193                63077    11753    2103

     Using Slab Decomposition



     bravais-lattice index     =            0
     lattice parameter (alat)  =       5.5533  a.u.
     unit-cell volume          =     171.2590 (a.u.)^3
     number of atoms/cell      =            2
     number of atomic types    =            2
     number of electrons       =        28.00
     number of Kohn-Sham states=           18
     kinetic-energy cutoff     =      64.0000  Ry
     charge density cutoff     =     782.0000  Ry
     scf convergence threshold =      1.0E-08
     mixing beta               =       0.7000
     number of iterations used =            8  plain     mixing
     Exchange-correlation= PBE
                           (   1   4   3   4   0   0   0)

     celldm(1)=   5.553300  celldm(2)=   0.000000  celldm(3)=   0.000000
     celldm(4)=   0.000000  celldm(5)=   0.000000  celldm(6)=   0.000000

     crystal axes: (cart. coord. in units of alat)
               a(1) = (   1.000000   0.000000   0.000000 )  
               a(2) = (   0.000000   1.000000   0.000000 )  
               a(3) = (   0.000000   0.000000   1.000000 )  

     reciprocal axes: (cart. coord. in units 2 pi/alat)
               b(1) = (  1.000000  0.000000  0.000000 )  
               b(2) = (  0.000000  1.000000  0.000000 )  
               b(3) = (  0.000000  0.000000  1.000000 )  


     PseudoPot. # 1 for Fe read from file:
     ./Fe.pbe-spn-kjpaw_psl.0.2.1.UPF
     MD5 check sum: e86618425769142926afa95317d90200
     Pseudo is Projector augmented-wave + core cor, Zval = 16.0
     Generated using "atomic" code by A. Dal Corso  v.5.0.99 svn rev. 10869
     Shape of augmentation charge: PSQ
     Using radial grid of 1191 points,  6 beta functions with: 
                l(1) =   0
                l(2) =   0
                l(3) =   1
                l(4) =   1
                l(5) =   2
                l(6) =   2
     Q(r) pseudized with 0 coefficients 


     PseudoPot. # 2 for Ti read from file:
     ./Ti_pbe_v1.4.uspp.F.UPF
     MD5 check sum: 88a00a6731bd790ddea75d31a80cb452
     Pseudo is Ultrasoft + core correction, Zval = 12.0
     Generated by new atomic code, or converted to UPF format
     Using radial grid of  851 points,  6 beta functions with: 
                l(1) =   0
                l(2) =   0
                l(3) =   1
                l(4) =   1
                l(5) =   2
                l(6) =   2
     Q(r) pseudized with  6 coefficients,  rinner =    1.000   1.000   1.000
                                                       1.000   1.000

     atomic species   valence    mass     pseudopotential
     Fe               16.00    55.84500     Fe( 1.00)
     Ti               12.00    47.86700     Ti( 1.00)

     48 Sym. Ops., with inversion, found



   Cartesian axes

     site n.     atom                  positions (alat units)
         1        Fe     tau(   1) = (   0.5000000   0.5000000   0.5000000  )
         2        Ti     tau(   2) = (   0.0000000   0.0000000   0.0000000  )

     number of k points=   286  Marzari-Vanderbilt smearing, width (Ry)=  0.0050

     Number of k-points >= 100: set verbosity='high' to print them.

     Dense  grid:    63077 G-vectors     FFT dimensions: (  50,  50,  50)

     Smooth grid:    11753 G-vectors     FFT dimensions: (  30,  30,  30)

     Estimated max dynamical RAM per process >      48.02 MB

     Estimated total dynamical RAM >     384.18 MB

     Check: negative core charge=   -0.000015

     Initial potential from superposition of free atoms

     starting charge      26.9995, renormalised to      28.0000

     negative rho (up, down):  1.188E-03 0.000E+00
     Starting wfcs are   23 randomized atomic wfcs
     Checking if some PAW data can be deallocated... 

     total cpu time spent up to now is        1.5 secs

     per-process dynamical memory:   141.0 Mb

     Self-consistent Calculation

     iteration #  1     ecut=    64.00 Ry     beta= 0.70
     Davidson diagonalization with overlap
     ethr =  1.00E-02,  avg # of iterations =  2.1

     negative rho (up, down):  2.077E-04 0.000E+00

     total cpu time spent up to now is        3.3 secs

     total energy              =    -434.93641206 Ry
     estimated scf accuracy    <      17.40813292 Ry

     iteration #  2     ecut=    64.00 Ry     beta= 0.70
     Davidson diagonalization with overlap
     ethr =  1.00E-02,  avg # of iterations =  6.1

     negative rho (up, down):  7.325E-05 0.000E+00

     total cpu time spent up to now is        6.7 secs

     total energy              =    -448.54741098 Ry
     estimated scf accuracy    <      65.74849174 Ry

     iteration #  3     ecut=    64.00 Ry     beta= 0.70
     Davidson diagonalization with overlap
     ethr =  1.00E-02,  avg # of iterations =  3.1

     negative rho (up, down):  1.537E-04 0.000E+00

     total cpu time spent up to now is        8.9 secs

     total energy              =    -448.58137759 Ry
     estimated scf accuracy    <      16.73553621 Ry

     iteration #  4     ecut=    64.00 Ry     beta= 0.70
     Davidson diagonalization with overlap
     ethr =  1.00E-02,  avg # of iterations =  2.1

     negative rho (up, down):  1.921E-04 0.000E+00

     total cpu time spent up to now is       10.7 secs

     total energy              =    -449.10519129 Ry
     estimated scf accuracy    <       4.74493258 Ry

     iteration #  5     ecut=    64.00 Ry     beta= 0.70
     Davidson diagonalization with overlap
     ethr =  1.00E-02,  avg # of iterations =  1.0

     negative rho (up, down):  2.125E-04 0.000E+00

     total cpu time spent up to now is       12.2 secs

     total energy              =    -449.12324219 Ry
     estimated scf accuracy    <       4.34243117 Ry

     iteration #  6     ecut=    64.00 Ry     beta= 0.70
     Davidson diagonalization with overlap
     ethr =  1.00E-02,  avg # of iterations =  1.0

     negative rho (up, down):  7.794E-04 0.000E+00

     total cpu time spent up to now is       13.7 secs

     total energy              =    -448.18145692 Ry
     estimated scf accuracy    <       4.41492684 Ry

     iteration #  7     ecut=    64.00 Ry     beta= 0.70
     Davidson diagonalization with overlap
     ethr =  1.00E-02,  avg # of iterations =  1.9

     negative rho (up, down):  7.609E-04 0.000E+00

     total cpu time spent up to now is       15.3 secs

     total energy              =    -448.55490732 Ry
     estimated scf accuracy    <       0.18404598 Ry

     iteration #  8     ecut=    64.00 Ry     beta= 0.70
     Davidson diagonalization with overlap
     ethr =  6.57E-04,  avg # of iterations =  4.2

     negative rho (up, down):  1.028E-03 0.000E+00

     total cpu time spent up to now is       17.5 secs

     total energy              =    -448.55522362 Ry
     estimated scf accuracy    <       0.06731127 Ry

     iteration #  9     ecut=    64.00 Ry     beta= 0.70
     Davidson diagonalization with overlap
     ethr =  2.40E-04,  avg # of iterations =  3.7

     negative rho (up, down):  9.615E-04 0.000E+00

     total cpu time spent up to now is       19.8 secs

     total energy              =    -448.53698651 Ry
     estimated scf accuracy    <       0.26485003 Ry

     iteration # 10     ecut=    64.00 Ry     beta= 0.70
     Davidson diagonalization with overlap
     ethr =  2.40E-04,  avg # of iterations =  4.5

     negative rho (up, down):  9.116E-04 0.000E+00

     total cpu time spent up to now is       22.0 secs

     total energy              =    -448.58240097 Ry
     estimated scf accuracy    <       0.73928188 Ry

     iteration # 11     ecut=    64.00 Ry     beta= 0.70
     Davidson diagonalization with overlap
     ethr =  2.40E-04,  avg # of iterations =  2.8

     negative rho (up, down):  8.175E-04 0.000E+00

     total cpu time spent up to now is       23.7 secs

     total energy              =    -448.59311993 Ry
     estimated scf accuracy    <       0.15263169 Ry

     iteration # 12     ecut=    64.00 Ry     beta= 0.70
     Davidson diagonalization with overlap
     ethr =  2.40E-04,  avg # of iterations =  2.0

     negative rho (up, down):  7.928E-04 0.000E+00

     total cpu time spent up to now is       25.4 secs

     total energy              =    -448.54712231 Ry
     estimated scf accuracy    <       0.35576096 Ry

     iteration # 13     ecut=    64.00 Ry     beta= 0.70
     Davidson diagonalization with overlap
     ethr =  2.40E-04,  avg # of iterations =  3.4

     negative rho (up, down):  7.847E-04 0.000E+00

     total cpu time spent up to now is       27.2 secs

     total energy              =    -448.58161409 Ry
     estimated scf accuracy    <       0.04447269 Ry

     iteration # 14     ecut=    64.00 Ry     beta= 0.70
     Davidson diagonalization with overlap
     ethr =  1.59E-04,  avg # of iterations =  1.0

     negative rho (up, down):  1.013E-03 0.000E+00

     total cpu time spent up to now is       28.7 secs

     total energy              =    -448.56915751 Ry
     estimated scf accuracy    <       0.03849378 Ry

     iteration # 15     ecut=    64.00 Ry     beta= 0.70
     Davidson diagonalization with overlap
     ethr =  1.37E-04,  avg # of iterations =  4.0

     negative rho (up, down):  8.859E-04 0.000E+00

     total cpu time spent up to now is       30.9 secs

     total energy              =    -448.56061105 Ry
     estimated scf accuracy    <       0.23635610 Ry

     iteration # 16     ecut=    64.00 Ry     beta= 0.70
     Davidson diagonalization with overlap
     ethr =  1.37E-04,  avg # of iterations =  3.5

     negative rho (up, down):  8.585E-04 0.000E+00

     total cpu time spent up to now is       32.7 secs

     total energy              =    -448.57863042 Ry
     estimated scf accuracy    <       0.00893300 Ry

     iteration # 17     ecut=    64.00 Ry     beta= 0.70
     Davidson diagonalization with overlap
     ethr =  3.19E-05,  avg # of iterations =  1.7

     negative rho (up, down):  8.756E-04 0.000E+00

     total cpu time spent up to now is       34.3 secs

     total energy              =    -448.57922040 Ry
     estimated scf accuracy    <       0.00042760 Ry

     iteration # 18     ecut=    64.00 Ry     beta= 0.70
     Davidson diagonalization with overlap
     ethr =  1.53E-06,  avg # of iterations =  4.0

     negative rho (up, down):  8.739E-04 0.000E+00

     total cpu time spent up to now is       36.5 secs

     total energy              =    -448.57931244 Ry
     estimated scf accuracy    <       0.00032553 Ry

     iteration # 19     ecut=    64.00 Ry     beta= 0.70
     Davidson diagonalization with overlap
     ethr =  1.16E-06,  avg # of iterations =  1.0

     negative rho (up, down):  8.761E-04 0.000E+00

     total cpu time spent up to now is       37.9 secs

     total energy              =    -448.57932616 Ry
     estimated scf accuracy    <       0.00001426 Ry

     iteration # 20     ecut=    64.00 Ry     beta= 0.70
     Davidson diagonalization with overlap
     c_bands:  1 eigenvalues not converged
     ethr =  5.09E-08,  avg # of iterations =  4.9

     negative rho (up, down):  8.758E-04 0.000E+00

     total cpu time spent up to now is       40.3 secs

     total energy              =    -448.57933294 Ry
     estimated scf accuracy    <       0.00000249 Ry

     iteration # 21     ecut=    64.00 Ry     beta= 0.70
     Davidson diagonalization with overlap
     ethr =  8.88E-09,  avg # of iterations =  2.0

     negative rho (up, down):  8.754E-04 0.000E+00

     total cpu time spent up to now is       41.9 secs

     total energy              =    -448.57933276 Ry
     estimated scf accuracy    <       0.00000088 Ry

     iteration # 22     ecut=    64.00 Ry     beta= 0.70
     Davidson diagonalization with overlap
     ethr =  3.15E-09,  avg # of iterations =  2.6

     negative rho (up, down):  8.755E-04 0.000E+00

     total cpu time spent up to now is       43.7 secs

     total energy              =    -448.57933287 Ry
     estimated scf accuracy    <       0.00000006 Ry

     iteration # 23     ecut=    64.00 Ry     beta= 0.70
     Davidson diagonalization with overlap
     ethr =  2.09E-10,  avg # of iterations =  3.7

     negative rho (up, down):  8.754E-04 0.000E+00

     total cpu time spent up to now is       45.7 secs

     End of self-consistent calculation

     Number of k-points >= 100: set verbosity='high' to print the bands.

     the Fermi energy is    17.6930 ev

!    total energy              =    -448.57933288 Ry
     estimated scf accuracy    <          4.8E-09 Ry
     smearing contrib. (-TS)   =      -0.00000545 Ry
     internal energy E=F+TS    =    -448.57932744 Ry

     The total energy is F=E-TS. E is the sum of the following terms:
     one-electron contribution =    -151.33637401 Ry
     hartree contribution      =      91.61840294 Ry
     xc contribution           =     -52.88829997 Ry
     ewald contribution        =    -259.82070277 Ry
     one-center paw contrib.   =     -76.15235363 Ry

     convergence has been achieved in  23 iterations

     negative rho (up, down):  8.754E-04 0.000E+00

     Forces acting on atoms (cartesian axes, Ry/au):

     atom    1 type  1   force =     0.00000000    0.00000000    0.00000000
     atom    2 type  2   force =     0.00000000    0.00000000    0.00000000

     Total force =     0.000000     Total SCF correction =     0.000000


     Computing stress (Cartesian axis) and pressure


     negative rho (up, down):  8.754E-04 0.000E+00
          total   stress  (Ry/bohr**3)                   (kbar)     P=       21.33
   0.00014498   0.00000000   0.00000000           21.33        0.00        0.00
   0.00000000   0.00014498   0.00000000            0.00       21.33        0.00
   0.00000000   0.00000000   0.00014498            0.00        0.00       21.33


     Writing all to output data dir ./TiFe.save/ :
     XML data file, charge density, pseudopotentials, collected wavefunctions

     init_run     :      1.22s CPU      1.27s WALL (       1 calls)
     electrons    :     42.61s CPU     44.28s WALL (       1 calls)
     forces       :      0.16s CPU      0.16s WALL (       1 calls)
     stress       :      0.75s CPU      0.75s WALL (       1 calls)

     Called by init_run:
     wfcinit      :      0.68s CPU      0.71s WALL (       1 calls)
     potinit      :      0.22s CPU      0.23s WALL (       1 calls)
     hinit0       :      0.24s CPU      0.24s WALL (       1 calls)

     Called by electrons:
     c_bands      :     34.49s CPU     35.83s WALL (      23 calls)
     sum_band     :      5.85s CPU      6.07s WALL (      23 calls)
     v_of_rho     :      0.14s CPU      0.16s WALL (      24 calls)
     newd         :      0.97s CPU      0.98s WALL (      24 calls)
     PAW_pot      :      1.22s CPU      1.24s WALL (      24 calls)
     mix_rho      :      0.02s CPU      0.02s WALL (      23 calls)

     Called by c_bands:
     init_us_2    :      0.76s CPU      0.79s WALL (   14014 calls)
     cegterg      :     33.11s CPU     34.40s WALL (    6578 calls)

     Called by *egterg:
     cdiaghg      :      7.06s CPU      7.29s WALL (   25602 calls)
     h_psi        :     22.61s CPU     23.56s WALL (   25888 calls)
     s_psi        :      0.59s CPU      0.62s WALL (   25888 calls)
     g_psi        :      0.12s CPU      0.13s WALL (   19024 calls)

     Called by h_psi:
     h_psi:calbec :      1.10s CPU      1.15s WALL (   25888 calls)
     vloc_psi     :     20.70s CPU     21.57s WALL (   25888 calls)
     add_vuspsi   :      0.67s CPU      0.70s WALL (   25888 calls)

     General routines
     calbec       :      1.63s CPU      1.71s WALL (   37328 calls)
     fft          :      0.23s CPU      0.24s WALL (     335 calls)
     ffts         :      0.15s CPU      0.15s WALL (      47 calls)
     fftw         :     19.09s CPU     19.88s WALL (  723568 calls)
     interpolate  :      0.16s CPU      0.16s WALL (      24 calls)

     Parallel routines

     PWSCF        :     45.21s CPU     52.57s WALL


   This run was terminated on:  22:21:47  27Oct2025            

=------------------------------------------------------------------------------=
   JOB DONE.
=------------------------------------------------------------------------------=
Note: The following floating-point exceptions are signalling: IEEE_UNDERFLOW_FLAG IEEE_DENORMAL
Note: The following floating-point exceptions are signalling: IEEE_UNDERFLOW_FLAG IEEE_DENORMAL
Note: The following floating-point exceptions are signalling: IEEE_UNDERFLOW_FLAG IEEE_DENORMAL
Note: The following floating-point exceptions are signalling: IEEE_UNDERFLOW_FLAG IEEE_DENORMAL
Note: The following floating-point exceptions are signalling: IEEE_UNDERFLOW_FLAG IEEE_DENORMAL
Note: The following floating-point exceptions are signalling: IEEE_UNDERFLOW_FLAG IEEE_DENORMAL
Note: The following floating-point exceptions are signalling: IEEE_UNDERFLOW_FLAG IEEE_DENORMAL
Note: The following floating-point exceptions are signalling: IEEE_UNDERFLOW_FLAG IEEE_DENORMAL
