
     Program PWSCF v.7.4 starts on 27Oct2025 at 21:57:35 

     This program is part of the open-source Quantum ESPRESSO suite
     for quantum simulation of materials; please cite
         "P. Giannozzi et al., J. Phys.:Condens. Matter 21 395502 (2009);
         "P. Giannozzi et al., J. Phys.:Condens. Matter 29 465901 (2017);
         "P. Giannozzi et al., J. Chem. Phys. 152 154105 (2020);
          URL http://www.quantum-espresso.org", 
     in publications or presentations arising from this work. More details at
     http://www.quantum-espresso.org/quote

     Parallel version (MPI & OpenMP), running on       8 processor cores
     Number of MPI processes:                 8
     Threads/MPI process:                     1

     MPI processes distributed on     1 nodes
     183503 MiB available memory on the printing compute node when the environment starts

     Reading input from TiFe_kmesh_convergence/TiFe2_k888.in

     Current dimensions of program PWSCF are:
     Max number of different atomic species (ntypx) = 10
     Max number of k-points (npk) =  40000
     Max angular momentum in pseudopotentials (lmaxx) =  4
     file Fe.pbe-spn-kjpaw_psl.0.2.1.UPF: wavefunction(s)  3D renormalized

     IMPORTANT: XC functional enforced from input :
     Exchange-correlation= PBE
                           (   1   4   3   4   0   0   0)
     Any further DFT definition will be discarded
     Please, verify this is what you really want

     Message from routine setup:
     using ibrav=0 with symmetry is DISCOURAGED, use correct ibrav instead

     R & G space division:  proc/nbgrp/npool/nimage =       8
     Subspace diagonalization in iterative solution of the eigenvalue problem:
     a serial algorithm will be used


     Parallelization info
     --------------------
     sticks:   dense  smooth     PW     G-vecs:    dense   smooth      PW
     Min         239      77     24                 7884     1467     262
     Max         242      78     25                 7885     1470     265
     Sum        1917     621    193                63077    11753    2103

     Using Slab Decomposition



     bravais-lattice index     =            0
     lattice parameter (alat)  =       5.5533  a.u.
     unit-cell volume          =     171.2590 (a.u.)^3
     number of atoms/cell      =            2
     number of atomic types    =            2
     number of electrons       =        28.00
     number of Kohn-Sham states=           18
     kinetic-energy cutoff     =      64.0000  Ry
     charge density cutoff     =     782.0000  Ry
     scf convergence threshold =      1.0E-08
     mixing beta               =       0.7000
     number of iterations used =            8  plain     mixing
     Exchange-correlation= PBE
                           (   1   4   3   4   0   0   0)

     celldm(1)=   5.553300  celldm(2)=   0.000000  celldm(3)=   0.000000
     celldm(4)=   0.000000  celldm(5)=   0.000000  celldm(6)=   0.000000

     crystal axes: (cart. coord. in units of alat)
               a(1) = (   1.000000   0.000000   0.000000 )  
               a(2) = (   0.000000   1.000000   0.000000 )  
               a(3) = (   0.000000   0.000000   1.000000 )  

     reciprocal axes: (cart. coord. in units 2 pi/alat)
               b(1) = (  1.000000  0.000000  0.000000 )  
               b(2) = (  0.000000  1.000000  0.000000 )  
               b(3) = (  0.000000  0.000000  1.000000 )  


     PseudoPot. # 1 for Fe read from file:
     ./Fe.pbe-spn-kjpaw_psl.0.2.1.UPF
     MD5 check sum: e86618425769142926afa95317d90200
     Pseudo is Projector augmented-wave + core cor, Zval = 16.0
     Generated using "atomic" code by A. Dal Corso  v.5.0.99 svn rev. 10869
     Shape of augmentation charge: PSQ
     Using radial grid of 1191 points,  6 beta functions with: 
                l(1) =   0
                l(2) =   0
                l(3) =   1
                l(4) =   1
                l(5) =   2
                l(6) =   2
     Q(r) pseudized with 0 coefficients 


     PseudoPot. # 2 for Ti read from file:
     ./Ti_pbe_v1.4.uspp.F.UPF
     MD5 check sum: 88a00a6731bd790ddea75d31a80cb452
     Pseudo is Ultrasoft + core correction, Zval = 12.0
     Generated by new atomic code, or converted to UPF format
     Using radial grid of  851 points,  6 beta functions with: 
                l(1) =   0
                l(2) =   0
                l(3) =   1
                l(4) =   1
                l(5) =   2
                l(6) =   2
     Q(r) pseudized with  6 coefficients,  rinner =    1.000   1.000   1.000
                                                       1.000   1.000

     atomic species   valence    mass     pseudopotential
     Fe               16.00    55.84500     Fe( 1.00)
     Ti               12.00    47.86700     Ti( 1.00)

     48 Sym. Ops., with inversion, found



   Cartesian axes

     site n.     atom                  positions (alat units)
         1        Fe     tau(   1) = (   0.5000000   0.5000000   0.5000000  )
         2        Ti     tau(   2) = (   0.0000000   0.0000000   0.0000000  )

     number of k points=    35  Marzari-Vanderbilt smearing, width (Ry)=  0.0050
                       cart. coord. in units 2pi/alat
        k(    1) = (   0.0000000   0.0000000   0.0000000), wk =   0.0039062
        k(    2) = (   0.0000000   0.0000000   0.1250000), wk =   0.0234375
        k(    3) = (   0.0000000   0.0000000   0.2500000), wk =   0.0234375
        k(    4) = (   0.0000000   0.0000000   0.3750000), wk =   0.0234375
        k(    5) = (   0.0000000   0.0000000  -0.5000000), wk =   0.0117188
        k(    6) = (   0.0000000   0.1250000   0.1250000), wk =   0.0468750
        k(    7) = (   0.0000000   0.1250000   0.2500000), wk =   0.0937500
        k(    8) = (   0.0000000   0.1250000   0.3750000), wk =   0.0937500
        k(    9) = (   0.0000000   0.1250000  -0.5000000), wk =   0.0468750
        k(   10) = (   0.0000000   0.2500000   0.2500000), wk =   0.0468750
        k(   11) = (   0.0000000   0.2500000   0.3750000), wk =   0.0937500
        k(   12) = (   0.0000000   0.2500000  -0.5000000), wk =   0.0468750
        k(   13) = (   0.0000000   0.3750000   0.3750000), wk =   0.0468750
        k(   14) = (   0.0000000   0.3750000  -0.5000000), wk =   0.0468750
        k(   15) = (   0.0000000  -0.5000000  -0.5000000), wk =   0.0117188
        k(   16) = (   0.1250000   0.1250000   0.1250000), wk =   0.0312500
        k(   17) = (   0.1250000   0.1250000   0.2500000), wk =   0.0937500
        k(   18) = (   0.1250000   0.1250000   0.3750000), wk =   0.0937500
        k(   19) = (   0.1250000   0.1250000  -0.5000000), wk =   0.0468750
        k(   20) = (   0.1250000   0.2500000   0.2500000), wk =   0.0937500
        k(   21) = (   0.1250000   0.2500000   0.3750000), wk =   0.1875000
        k(   22) = (   0.1250000   0.2500000  -0.5000000), wk =   0.0937500
        k(   23) = (   0.1250000   0.3750000   0.3750000), wk =   0.0937500
        k(   24) = (   0.1250000   0.3750000  -0.5000000), wk =   0.0937500
        k(   25) = (   0.1250000  -0.5000000  -0.5000000), wk =   0.0234375
        k(   26) = (   0.2500000   0.2500000   0.2500000), wk =   0.0312500
        k(   27) = (   0.2500000   0.2500000   0.3750000), wk =   0.0937500
        k(   28) = (   0.2500000   0.2500000  -0.5000000), wk =   0.0468750
        k(   29) = (   0.2500000   0.3750000   0.3750000), wk =   0.0937500
        k(   30) = (   0.2500000   0.3750000  -0.5000000), wk =   0.0937500
        k(   31) = (   0.2500000  -0.5000000  -0.5000000), wk =   0.0234375
        k(   32) = (   0.3750000   0.3750000   0.3750000), wk =   0.0312500
        k(   33) = (   0.3750000   0.3750000  -0.5000000), wk =   0.0468750
        k(   34) = (   0.3750000  -0.5000000  -0.5000000), wk =   0.0234375
        k(   35) = (  -0.5000000  -0.5000000  -0.5000000), wk =   0.0039062

     Dense  grid:    63077 G-vectors     FFT dimensions: (  50,  50,  50)

     Smooth grid:    11753 G-vectors     FFT dimensions: (  30,  30,  30)

     Estimated max dynamical RAM per process >      35.27 MB

     Estimated total dynamical RAM >     282.15 MB

     Check: negative core charge=   -0.000015

     Initial potential from superposition of free atoms

     starting charge      26.9995, renormalised to      28.0000

     negative rho (up, down):  1.188E-03 0.000E+00
     Starting wfcs are   23 randomized atomic wfcs
     Checking if some PAW data can be deallocated... 

     total cpu time spent up to now is        0.9 secs

     per-process dynamical memory:   140.7 Mb

     Self-consistent Calculation

     iteration #  1     ecut=    64.00 Ry     beta= 0.70
     Davidson diagonalization with overlap
     ethr =  1.00E-02,  avg # of iterations =  2.2

     negative rho (up, down):  2.077E-04 0.000E+00

     total cpu time spent up to now is        1.3 secs

     total energy              =    -434.96433425 Ry
     estimated scf accuracy    <      17.37683328 Ry

     iteration #  2     ecut=    64.00 Ry     beta= 0.70
     Davidson diagonalization with overlap
     ethr =  1.00E-02,  avg # of iterations =  6.0

     negative rho (up, down):  7.422E-05 0.000E+00

     total cpu time spent up to now is        1.9 secs

     WARNING: integrated charge=    28.00000674, expected=    28.00000000

     total energy              =    -448.54528680 Ry
     estimated scf accuracy    <      65.68396782 Ry

     iteration #  3     ecut=    64.00 Ry     beta= 0.70
     Davidson diagonalization with overlap
     ethr =  1.00E-02,  avg # of iterations =  3.2

     negative rho (up, down):  1.577E-04 0.000E+00

     total cpu time spent up to now is        2.4 secs

     total energy              =    -448.57823555 Ry
     estimated scf accuracy    <      16.71909453 Ry

     iteration #  4     ecut=    64.00 Ry     beta= 0.70
     Davidson diagonalization with overlap
     ethr =  1.00E-02,  avg # of iterations =  2.1

     negative rho (up, down):  1.956E-04 0.000E+00

     total cpu time spent up to now is        2.8 secs

     total energy              =    -449.09887704 Ry
     estimated scf accuracy    <       4.79216277 Ry

     iteration #  5     ecut=    64.00 Ry     beta= 0.70
     Davidson diagonalization with overlap
     ethr =  1.00E-02,  avg # of iterations =  1.0

     negative rho (up, down):  1.998E-04 0.000E+00

     total cpu time spent up to now is        3.2 secs

     total energy              =    -449.11744166 Ry
     estimated scf accuracy    <       4.37767453 Ry

     iteration #  6     ecut=    64.00 Ry     beta= 0.70
     Davidson diagonalization with overlap
     ethr =  1.00E-02,  avg # of iterations =  1.0

     negative rho (up, down):  1.828E-04 0.000E+00

     total cpu time spent up to now is        3.5 secs

     total energy              =    -449.15037047 Ry
     estimated scf accuracy    <       4.32868073 Ry

     iteration #  7     ecut=    64.00 Ry     beta= 0.70
     Davidson diagonalization with overlap
     ethr =  1.00E-02,  avg # of iterations =  1.0

     negative rho (up, down):  6.627E-04 0.000E+00

     total cpu time spent up to now is        3.8 secs

     total energy              =    -448.62760356 Ry
     estimated scf accuracy    <       4.41334738 Ry

     iteration #  8     ecut=    64.00 Ry     beta= 0.70
     Davidson diagonalization with overlap
     ethr =  1.00E-02,  avg # of iterations =  1.2

     negative rho (up, down):  8.425E-04 0.000E+00

     total cpu time spent up to now is        4.2 secs

     total energy              =    -448.53987508 Ry
     estimated scf accuracy    <       1.64598069 Ry

     iteration #  9     ecut=    64.00 Ry     beta= 0.70
     Davidson diagonalization with overlap
     ethr =  5.88E-03,  avg # of iterations =  1.1

     negative rho (up, down):  9.807E-04 0.000E+00

     total cpu time spent up to now is        4.5 secs

     total energy              =    -448.54119702 Ry
     estimated scf accuracy    <       0.39893958 Ry

     iteration # 10     ecut=    64.00 Ry     beta= 0.70
     Davidson diagonalization with overlap
     ethr =  1.42E-03,  avg # of iterations =  3.5

     negative rho (up, down):  8.144E-04 0.000E+00

     total cpu time spent up to now is        4.9 secs

     total energy              =    -448.57540175 Ry
     estimated scf accuracy    <       0.01983919 Ry

     iteration # 11     ecut=    64.00 Ry     beta= 0.70
     Davidson diagonalization with overlap
     ethr =  7.09E-05,  avg # of iterations =  4.7

     negative rho (up, down):  7.402E-04 0.000E+00

     total cpu time spent up to now is        5.4 secs

     total energy              =    -448.57029373 Ry
     estimated scf accuracy    <       0.03085994 Ry

     iteration # 12     ecut=    64.00 Ry     beta= 0.70
     Davidson diagonalization with overlap
     ethr =  7.09E-05,  avg # of iterations =  3.9

     negative rho (up, down):  6.694E-04 0.000E+00

     total cpu time spent up to now is        5.8 secs

     total energy              =    -448.56698691 Ry
     estimated scf accuracy    <       0.11092232 Ry

     iteration # 13     ecut=    64.00 Ry     beta= 0.70
     Davidson diagonalization with overlap
     ethr =  7.09E-05,  avg # of iterations =  4.3

     negative rho (up, down):  8.475E-04 0.000E+00

     total cpu time spent up to now is        6.3 secs

     total energy              =    -448.56636271 Ry
     estimated scf accuracy    <       0.06664635 Ry

     iteration # 14     ecut=    64.00 Ry     beta= 0.70
     Davidson diagonalization with overlap
     ethr =  7.09E-05,  avg # of iterations =  4.1

     negative rho (up, down):  1.340E-03 0.000E+00

     total cpu time spent up to now is        6.7 secs

     total energy              =    -448.64367676 Ry
     estimated scf accuracy    <       0.07115158 Ry

     iteration # 15     ecut=    64.00 Ry     beta= 0.70
     Davidson diagonalization with overlap
     ethr =  7.09E-05,  avg # of iterations =  5.7

     negative rho (up, down):  1.702E-03 0.000E+00

     total cpu time spent up to now is        7.3 secs

     total energy              =    -448.91390519 Ry
     estimated scf accuracy    <       5.63279150 Ry

     iteration # 16     ecut=    64.00 Ry     beta= 0.70
     Davidson diagonalization with overlap
     ethr =  7.09E-05,  avg # of iterations =  4.1

     negative rho (up, down):  8.943E-04 0.000E+00

     total cpu time spent up to now is        7.7 secs

     total energy              =    -448.16437504 Ry
     estimated scf accuracy    <       8.92504655 Ry

     iteration # 17     ecut=    64.00 Ry     beta= 0.70
     Davidson diagonalization with overlap
     ethr =  7.09E-05,  avg # of iterations =  6.3

     negative rho (up, down):  8.983E-04 0.000E+00

     total cpu time spent up to now is        8.3 secs

     total energy              =    -448.57898806 Ry
     estimated scf accuracy    <       0.00485977 Ry

     iteration # 18     ecut=    64.00 Ry     beta= 0.70
     Davidson diagonalization with overlap
     ethr =  1.74E-05,  avg # of iterations =  1.3

     negative rho (up, down):  8.819E-04 0.000E+00

     total cpu time spent up to now is        8.6 secs

     total energy              =    -448.57866754 Ry
     estimated scf accuracy    <       0.00529891 Ry

     iteration # 19     ecut=    64.00 Ry     beta= 0.70
     Davidson diagonalization with overlap
     ethr =  1.74E-05,  avg # of iterations =  1.0

     negative rho (up, down):  8.729E-04 0.000E+00

     total cpu time spent up to now is        9.0 secs

     total energy              =    -448.57858083 Ry
     estimated scf accuracy    <       0.00149561 Ry

     iteration # 20     ecut=    64.00 Ry     beta= 0.70
     Davidson diagonalization with overlap
     ethr =  5.34E-06,  avg # of iterations =  2.6

     negative rho (up, down):  8.734E-04 0.000E+00

     total cpu time spent up to now is        9.4 secs

     total energy              =    -448.57869789 Ry
     estimated scf accuracy    <       0.00000706 Ry

     iteration # 21     ecut=    64.00 Ry     beta= 0.70
     Davidson diagonalization with overlap
     ethr =  2.52E-08,  avg # of iterations =  5.6

     negative rho (up, down):  8.723E-04 0.000E+00

     total cpu time spent up to now is        9.9 secs

     total energy              =    -448.57871660 Ry
     estimated scf accuracy    <       0.00000564 Ry

     iteration # 22     ecut=    64.00 Ry     beta= 0.70
     Davidson diagonalization with overlap
     ethr =  2.01E-08,  avg # of iterations =  4.0

     negative rho (up, down):  8.707E-04 0.000E+00

     total cpu time spent up to now is       10.4 secs

     total energy              =    -448.57872186 Ry
     estimated scf accuracy    <       0.00011175 Ry

     iteration # 23     ecut=    64.00 Ry     beta= 0.70
     Davidson diagonalization with overlap
     ethr =  2.01E-08,  avg # of iterations =  2.0

     negative rho (up, down):  8.694E-04 0.000E+00

     total cpu time spent up to now is       10.7 secs

     total energy              =    -448.57871850 Ry
     estimated scf accuracy    <       0.00012596 Ry

     iteration # 24     ecut=    64.00 Ry     beta= 0.70
     Davidson diagonalization with overlap
     ethr =  2.01E-08,  avg # of iterations =  1.2

     negative rho (up, down):  8.700E-04 0.000E+00

     total cpu time spent up to now is       11.1 secs

     total energy              =    -448.57871729 Ry
     estimated scf accuracy    <       0.00008313 Ry

     iteration # 25     ecut=    64.00 Ry     beta= 0.70
     Davidson diagonalization with overlap
     ethr =  2.01E-08,  avg # of iterations =  1.0

     negative rho (up, down):  8.704E-04 0.000E+00

     total cpu time spent up to now is       11.4 secs

     total energy              =    -448.57871662 Ry
     estimated scf accuracy    <       0.00006642 Ry

     iteration # 26     ecut=    64.00 Ry     beta= 0.70
     Davidson diagonalization with overlap
     ethr =  2.01E-08,  avg # of iterations =  1.0

     negative rho (up, down):  8.711E-04 0.000E+00

     total cpu time spent up to now is       11.8 secs

     total energy              =    -448.57871419 Ry
     estimated scf accuracy    <       0.00005767 Ry

     iteration # 27     ecut=    64.00 Ry     beta= 0.70
     Davidson diagonalization with overlap
     ethr =  2.01E-08,  avg # of iterations =  1.7

     negative rho (up, down):  8.728E-04 0.000E+00

     total cpu time spent up to now is       12.2 secs

     total energy              =    -448.57870945 Ry
     estimated scf accuracy    <       0.00003069 Ry

     iteration # 28     ecut=    64.00 Ry     beta= 0.70
     Davidson diagonalization with overlap
     ethr =  2.01E-08,  avg # of iterations =  4.0

     negative rho (up, down):  8.725E-04 0.000E+00

     total cpu time spent up to now is       12.6 secs

     total energy              =    -448.57871251 Ry
     estimated scf accuracy    <       0.00000220 Ry

     iteration # 29     ecut=    64.00 Ry     beta= 0.70
     Davidson diagonalization with overlap
     ethr =  7.87E-09,  avg # of iterations =  1.1

     negative rho (up, down):  8.723E-04 0.000E+00

     total cpu time spent up to now is       13.0 secs

     total energy              =    -448.57871245 Ry
     estimated scf accuracy    <       0.00000085 Ry

     iteration # 30     ecut=    64.00 Ry     beta= 0.70
     Davidson diagonalization with overlap
     ethr =  3.05E-09,  avg # of iterations =  1.9

     negative rho (up, down):  8.723E-04 0.000E+00

     total cpu time spent up to now is       13.4 secs

     End of self-consistent calculation

          k = 0.0000 0.0000 0.0000 (  1419 PWs)   bands (ev):

   -69.2106 -39.1230 -35.2635 -35.2635 -35.2635 -15.2180 -15.2180 -15.2180
    10.1560  13.8676  13.8676  16.6603  16.6603  16.6603  19.0102  19.0102
    20.9579  20.9579

          k = 0.0000 0.0000 0.1250 (  1458 PWs)   bands (ev):

   -69.2103 -39.1191 -35.2688 -35.2634 -35.2634 -15.2721 -15.2148 -15.2148
    10.4809  14.0239  14.0325  16.6373  16.6373  16.7306  18.8122  19.0814
    20.5113  20.5113

          k = 0.0000 0.0000 0.2500 (  1446 PWs)   bands (ev):

   -69.2090 -39.1096 -35.2801 -35.2613 -35.2613 -15.4009 -15.2070 -15.2070
    11.3943  14.3969  14.4700  16.5972  16.5972  16.9141  18.2612  19.1787
    19.6335  19.6335

          k = 0.0000 0.0000 0.3750 (  1462 PWs)   bands (ev):

   -69.2078 -39.1002 -35.2917 -35.2597 -35.2597 -15.5275 -15.1992 -15.1992
    12.6980  14.5642  15.1112  16.5873  16.5873  17.1231  17.5094  18.8974
    18.8974  18.9364

          k = 0.0000 0.0000-0.5000 (  1462 PWs)   bands (ev):

   -69.2073 -39.0963 -35.2959 -35.2592 -35.2592 -15.5793 -15.1960 -15.1960
    13.8550  14.0994  15.5508  16.5967  16.5967  17.0224  17.2198  18.6044
    18.6110  18.6110

          k = 0.0000 0.1250 0.1250 (  1456 PWs)   bands (ev):

   -69.2097 -39.1147 -35.2705 -35.2663 -35.2626 -15.2733 -15.2625 -15.2113
    10.7930  14.1587  14.2059  16.4850  16.5882  16.8864  18.8100  19.0310
    20.0720  20.0872

          k = 0.0000 0.1250 0.2500 (  1470 PWs)   bands (ev):

   -69.2086 -39.1042 -35.2814 -35.2672 -35.2610 -15.3949 -15.2574 -15.2029
    11.6631  14.4833  14.6407  16.3590  16.4870  16.9897  18.4469  19.0654
    19.3558  19.4861

          k = 0.0000 0.1250 0.3750 (  1484 PWs)   bands (ev):

   -69.2074 -39.0937 -35.2934 -35.2668 -35.2595 -15.5191 -15.2476 -15.1944
    12.8788  14.6275  15.1916  16.3476  16.4026  16.8913  17.9128  18.5219
    19.1896  19.2793

          k = 0.0000 0.1250-0.5000 (  1478 PWs)   bands (ev):

   -69.2069 -39.0894 -35.2980 -35.2665 -35.2588 -15.5699 -15.2436 -15.1909
    13.8988  14.2070  15.5527  16.3359  16.4039  16.7533  17.6596  18.2459
    19.1452  19.1575

          k = 0.0000 0.2500 0.2500 (  1480 PWs)   bands (ev):

   -69.2074 -39.0911 -35.2861 -35.2782 -35.2596 -15.3896 -15.3685 -15.1929
    12.3743  14.5530  15.1697  16.0653  16.3460  16.7915  18.6868  18.7489
    19.1027  19.4953

          k = 0.0000 0.2500 0.3750 (  1495 PWs)   bands (ev):

   -69.2063 -39.0780 -35.2972 -35.2830 -35.2583 -15.4987 -15.3631 -15.1828
    13.2400  14.4544  15.7447  15.9330  16.3802  16.4665  18.3536  18.6282
    19.3447  19.7889

          k = 0.0000 0.2500-0.5000 (  1498 PWs)   bands (ev):

   -69.2058 -39.0725 -35.3023 -35.2843 -35.2578 -15.5471 -15.3571 -15.1786
    13.7782  14.2133  15.9685  15.9908  16.0984  16.7656  18.1082  18.5395
    19.5218  20.0137

          k = 0.0000 0.3750 0.3750 (  1488 PWs)   bands (ev):

   -69.2050 -39.0622 -35.3018 -35.2976 -35.2570 -15.4828 -15.4723 -15.1711
    13.4511  14.1675  15.6561  15.9019  16.5906  17.0356  18.5511  19.1100
    19.1563  20.3604

          k = 0.0000 0.3750-0.5000 (  1482 PWs)   bands (ev):

   -69.2045 -39.0556 -35.3063 -35.3010 -35.2563 -15.5243 -15.4690 -15.1663
    13.4962  14.0382  15.6293  15.6481  16.9626  17.9143  18.0908  19.2442
    19.3300  20.6784

          k = 0.0000-0.5000-0.5000 (  1492 PWs)   bands (ev):

   -69.2041 -39.0486 -35.3084 -35.3084 -35.2556 -15.5148 -15.5148 -15.1612
    13.3664  13.9515  15.4906  15.4906  17.7666  18.1980  18.7315  18.7315
    19.4565  20.9289

          k = 0.1250 0.1250 0.1250 (  1460 PWs)   bands (ev):

   -69.2093 -39.1101 -35.2697 -35.2697 -35.2646 -15.2725 -15.2592 -15.2592
    11.0960  14.3323  14.3323  16.4320  16.4320  16.9505  18.9185  18.9185
    19.5155  20.4708

          k = 0.1250 0.1250 0.2500 (  1471 PWs)   bands (ev):

   -69.2081 -39.0987 -35.2818 -35.2680 -35.2657 -15.3890 -15.2549 -15.2511
    11.9339  14.6839  14.7022  16.2642  16.3002  16.8378  18.6078  19.0281
    19.3056  19.6003

          k = 0.1250 0.1250 0.3750 (  1487 PWs)   bands (ev):

   -69.2069 -39.0874 -35.2944 -35.2664 -35.2663 -15.5113 -15.2431 -15.2428
    13.0819  14.7975  15.1610  16.1271  16.3008  16.6350  18.2121  18.6930
    18.9099  19.7085

          k = 0.1250 0.1250-0.5000 (  1476 PWs)   bands (ev):

   -69.2064 -39.0827 -35.2991 -35.2665 -35.2653 -15.5614 -15.2397 -15.2377
    14.0066  14.3605  15.4729  15.9780  16.5193  16.5276  18.0072  18.3386
    18.6597  20.0681

          k = 0.1250 0.2500 0.2500 (  1473 PWs)   bands (ev):

   -69.2069 -39.0853 -35.2851 -35.2788 -35.2659 -15.3826 -15.3649 -15.2423
    12.6479  14.7758  15.2086  15.9928  16.1384  16.4197  18.8022  19.0766
    19.1440  19.6655

          k = 0.1250 0.2500 0.3750 (  1484 PWs)   bands (ev):

   -69.2057 -39.0719 -35.2970 -35.2824 -35.2649 -15.4924 -15.3587 -15.2315
    13.4980  14.6860  15.6109  15.8409  16.1663  16.2816  18.5201  18.7936
    19.0906  20.2858

          k = 0.1250 0.2500-0.5000 (  1488 PWs)   bands (ev):

   -69.2052 -39.0664 -35.3026 -35.2833 -35.2644 -15.5406 -15.3528 -15.2270
    14.0002  14.4408  15.6665  15.8099  16.1431  16.6739  18.1621  18.7626
    18.8742  20.6255

          k = 0.1250 0.3750 0.3750 (  1479 PWs)   bands (ev):

   -69.2045 -39.0564 -35.3007 -35.2974 -35.2634 -15.4774 -15.4688 -15.2200
    13.7212  14.3975  15.6033  15.7682  16.4980  16.7150  18.4679  18.8502
    19.3386  20.6966

          k = 0.1250 0.3750-0.5000 (  1492 PWs)   bands (ev):

   -69.2041 -39.0500 -35.3060 -35.3002 -35.2631 -15.5199 -15.4652 -15.2152
    13.7492  14.2754  15.5705  15.5781  16.8046  17.4938  18.0881  18.7519
    19.4246  20.8635

          k = 0.1250-0.5000-0.5000 (  1484 PWs)   bands (ev):

   -69.2035 -39.0432 -35.3073 -35.3073 -35.2623 -15.5113 -15.5113 -15.2103
    13.6242  14.1881  15.4527  15.4527  17.7723  18.0070  18.0070  18.1984
    19.6200  21.8738

          k = 0.2500 0.2500 0.2500 (  1469 PWs)   bands (ev):

   -69.2057 -39.0713 -35.2831 -35.2831 -35.2781 -15.3693 -15.3565 -15.3565
    13.3595  15.2997  15.2997  15.7775  15.8261  15.8261  18.9446  18.9446
    19.7590  19.7590

          k = 0.2500 0.2500 0.3750 (  1485 PWs)   bands (ev):

   -69.2045 -39.0573 -35.2973 -35.2813 -35.2813 -15.4774 -15.3480 -15.3475
    14.1156  15.1032  15.3860  15.6668  15.8244  16.0404  18.6026  18.6820
    19.4316  20.3648

          k = 0.2500 0.2500-0.5000 (  1488 PWs)   bands (ev):

   -69.2041 -39.0515 -35.3036 -35.2821 -35.2805 -15.5250 -15.3444 -15.3404
    14.4374  14.8148  15.4228  15.5989  15.9786  16.4954  18.1331  18.5519
    19.3548  20.6570

          k = 0.2500 0.3750 0.3750 (  1481 PWs)   bands (ev):

   -69.2033 -39.0426 -35.2984 -35.2969 -35.2798 -15.4645 -15.4602 -15.3367
    14.4532  14.9005  15.4951  15.5773  16.0417  16.2151  18.4032  18.4205
    19.8748  20.6052

          k = 0.2500 0.3750-0.5000 (  1492 PWs)   bands (ev):

   -69.2029 -39.0365 -35.3047 -35.2981 -35.2793 -15.5093 -15.4562 -15.3320
    14.4241  14.8110  15.4614  15.4800  16.3176  16.7347  18.0079  18.3441
    19.9480  20.9181

          k = 0.2500-0.5000-0.5000 (  1460 PWs)   bands (ev):

   -69.2022 -39.0302 -35.3045 -35.3045 -35.2782 -15.5028 -15.5028 -15.3277
    14.3305  14.7548  15.3852  15.3852  16.9640  16.9640  17.7862  18.1570
    20.1204  21.2429

          k = 0.3750 0.3750 0.3750 (  1487 PWs)   bands (ev):

   -69.2022 -39.0287 -35.2965 -35.2963 -35.2963 -15.4517 -15.4517 -15.4514
    15.0165  15.4418  15.4418  15.4542  15.8378  15.8378  18.1802  18.1802
    20.6234  20.6234

          k = 0.3750 0.3750-0.5000 (  1488 PWs)   bands (ev):

   -69.2017 -39.0229 -35.3033 -35.2959 -35.2956 -15.4987 -15.4481 -15.4461
    15.0674  15.1628  15.5129  15.5830  15.8454  16.2118  17.9116  18.1153
    20.6396  21.0371

          k = 0.3750-0.5000-0.5000 (  1480 PWs)   bands (ev):

   -69.2012 -39.0172 -35.3025 -35.3025 -35.2948 -15.4942 -15.4942 -15.4433
    15.2397  15.3024  15.3951  15.3951  16.1569  16.1569  17.8001  17.9833
    20.8590  21.2721

          k =-0.5000-0.5000-0.5000 (  1472 PWs)   bands (ev):

   -69.2006 -39.0118 -35.3013 -35.3013 -35.3013 -15.4907 -15.4907 -15.4907
    15.5192  15.5192  15.5192  15.7472  15.7472  15.7472  17.8059  17.8059
    21.2843  21.2843

     the Fermi energy is    17.7798 ev

!    total energy              =    -448.57871250 Ry
     estimated scf accuracy    <          5.4E-09 Ry
     smearing contrib. (-TS)   =      -0.00003936 Ry
     internal energy E=F+TS    =    -448.57867314 Ry

     The total energy is F=E-TS. E is the sum of the following terms:
     one-electron contribution =    -151.34747462 Ry
     hartree contribution      =      91.63253362 Ry
     xc contribution           =     -52.89081121 Ry
     ewald contribution        =    -259.82070277 Ry
     one-center paw contrib.   =     -76.15221816 Ry

     convergence has been achieved in  30 iterations

     negative rho (up, down):  8.723E-04 0.000E+00

     Forces acting on atoms (cartesian axes, Ry/au):

     atom    1 type  1   force =     0.00000000    0.00000000    0.00000000
     atom    2 type  2   force =     0.00000000    0.00000000    0.00000000

     Total force =     0.000000     Total SCF correction =     0.000000


     Computing stress (Cartesian axis) and pressure


     negative rho (up, down):  8.723E-04 0.000E+00
          total   stress  (Ry/bohr**3)                   (kbar)     P=       19.79
   0.00013452   0.00000000   0.00000000           19.79        0.00        0.00
   0.00000000   0.00013452   0.00000000            0.00       19.79        0.00
   0.00000000   0.00000000   0.00013452            0.00        0.00       19.79


     Writing all to output data dir ./TiFe.save/ :
     XML data file, charge density, pseudopotentials, collected wavefunctions

     init_run     :      0.66s CPU      0.70s WALL (       1 calls)
     electrons    :     12.10s CPU     12.51s WALL (       1 calls)
     forces       :      0.10s CPU      0.11s WALL (       1 calls)
     stress       :      0.50s CPU      0.50s WALL (       1 calls)

     Called by init_run:
     wfcinit      :      0.10s CPU      0.10s WALL (       1 calls)
     potinit      :      0.22s CPU      0.24s WALL (       1 calls)
     hinit0       :      0.25s CPU      0.26s WALL (       1 calls)

     Called by electrons:
     c_bands      :      6.12s CPU      6.34s WALL (      30 calls)
     sum_band     :      2.63s CPU      2.70s WALL (      30 calls)
     v_of_rho     :      0.20s CPU      0.22s WALL (      31 calls)
     newd         :      1.42s CPU      1.44s WALL (      31 calls)
     PAW_pot      :      1.77s CPU      1.80s WALL (      31 calls)
     mix_rho      :      0.03s CPU      0.03s WALL (      30 calls)

     Called by c_bands:
     init_us_2    :      0.13s CPU      0.14s WALL (    2205 calls)
     cegterg      :      5.88s CPU      6.08s WALL (    1050 calls)

     Called by *egterg:
     cdiaghg      :      1.21s CPU      1.25s WALL (    3986 calls)
     h_psi        :      4.04s CPU      4.19s WALL (    4021 calls)
     s_psi        :      0.11s CPU      0.11s WALL (    4021 calls)
     g_psi        :      0.02s CPU      0.02s WALL (    2936 calls)

     Called by h_psi:
     h_psi:calbec :      0.20s CPU      0.21s WALL (    4021 calls)
     vloc_psi     :      3.70s CPU      3.83s WALL (    4021 calls)
     add_vuspsi   :      0.12s CPU      0.13s WALL (    4021 calls)

     General routines
     calbec       :      0.28s CPU      0.29s WALL (    5666 calls)
     fft          :      0.26s CPU      0.28s WALL (     426 calls)
     ffts         :      0.15s CPU      0.16s WALL (      61 calls)
     fftw         :      3.36s CPU      3.50s WALL (  114702 calls)
     interpolate  :      0.16s CPU      0.16s WALL (      31 calls)

     Parallel routines

     PWSCF        :     13.60s CPU     14.96s WALL


   This run was terminated on:  21:57:50  27Oct2025            

=------------------------------------------------------------------------------=
   JOB DONE.
=------------------------------------------------------------------------------=
Note: The following floating-point exceptions are signalling: IEEE_UNDERFLOW_FLAG IEEE_DENORMAL
Note: The following floating-point exceptions are signalling: IEEE_UNDERFLOW_FLAG IEEE_DENORMAL
Note: The following floating-point exceptions are signalling: IEEE_UNDERFLOW_FLAG IEEE_DENORMAL
Note: The following floating-point exceptions are signalling: IEEE_UNDERFLOW_FLAG IEEE_DENORMAL
Note: The following floating-point exceptions are signalling: IEEE_UNDERFLOW_FLAG IEEE_DENORMAL
Note: The following floating-point exceptions are signalling: IEEE_UNDERFLOW_FLAG IEEE_DENORMAL
Note: The following floating-point exceptions are signalling: IEEE_UNDERFLOW_FLAG IEEE_DENORMAL
Note: The following floating-point exceptions are signalling: IEEE_UNDERFLOW_FLAG IEEE_DENORMAL
