
     Program PWSCF v.7.4 starts on 27Oct2025 at 22:21:47 

     This program is part of the open-source Quantum ESPRESSO suite
     for quantum simulation of materials; please cite
         "P. Giannozzi et al., J. Phys.:Condens. Matter 21 395502 (2009);
         "P. Giannozzi et al., J. Phys.:Condens. Matter 29 465901 (2017);
         "P. Giannozzi et al., J. Chem. Phys. 152 154105 (2020);
          URL http://www.quantum-espresso.org", 
     in publications or presentations arising from this work. More details at
     http://www.quantum-espresso.org/quote

     Parallel version (MPI & OpenMP), running on       8 processor cores
     Number of MPI processes:                 8
     Threads/MPI process:                     1

     MPI processes distributed on     1 nodes
     220851 MiB available memory on the printing compute node when the environment starts

     Reading input from TiFe_kmesh_convergence/TiFe2_k303030.in

     Current dimensions of program PWSCF are:
     Max number of different atomic species (ntypx) = 10
     Max number of k-points (npk) =  40000
     Max angular momentum in pseudopotentials (lmaxx) =  4
     file Fe.pbe-spn-kjpaw_psl.0.2.1.UPF: wavefunction(s)  3D renormalized

     IMPORTANT: XC functional enforced from input :
     Exchange-correlation= PBE
                           (   1   4   3   4   0   0   0)
     Any further DFT definition will be discarded
     Please, verify this is what you really want

     Message from routine setup:
     using ibrav=0 with symmetry is DISCOURAGED, use correct ibrav instead

     R & G space division:  proc/nbgrp/npool/nimage =       8
     Subspace diagonalization in iterative solution of the eigenvalue problem:
     a serial algorithm will be used


     Parallelization info
     --------------------
     sticks:   dense  smooth     PW     G-vecs:    dense   smooth      PW
     Min         239      77     24                 7884     1467     262
     Max         242      78     25                 7885     1470     265
     Sum        1917     621    193                63077    11753    2103

     Using Slab Decomposition



     bravais-lattice index     =            0
     lattice parameter (alat)  =       5.5533  a.u.
     unit-cell volume          =     171.2590 (a.u.)^3
     number of atoms/cell      =            2
     number of atomic types    =            2
     number of electrons       =        28.00
     number of Kohn-Sham states=           18
     kinetic-energy cutoff     =      64.0000  Ry
     charge density cutoff     =     782.0000  Ry
     scf convergence threshold =      1.0E-08
     mixing beta               =       0.7000
     number of iterations used =            8  plain     mixing
     Exchange-correlation= PBE
                           (   1   4   3   4   0   0   0)

     celldm(1)=   5.553300  celldm(2)=   0.000000  celldm(3)=   0.000000
     celldm(4)=   0.000000  celldm(5)=   0.000000  celldm(6)=   0.000000

     crystal axes: (cart. coord. in units of alat)
               a(1) = (   1.000000   0.000000   0.000000 )  
               a(2) = (   0.000000   1.000000   0.000000 )  
               a(3) = (   0.000000   0.000000   1.000000 )  

     reciprocal axes: (cart. coord. in units 2 pi/alat)
               b(1) = (  1.000000  0.000000  0.000000 )  
               b(2) = (  0.000000  1.000000  0.000000 )  
               b(3) = (  0.000000  0.000000  1.000000 )  


     PseudoPot. # 1 for Fe read from file:
     ./Fe.pbe-spn-kjpaw_psl.0.2.1.UPF
     MD5 check sum: e86618425769142926afa95317d90200
     Pseudo is Projector augmented-wave + core cor, Zval = 16.0
     Generated using "atomic" code by A. Dal Corso  v.5.0.99 svn rev. 10869
     Shape of augmentation charge: PSQ
     Using radial grid of 1191 points,  6 beta functions with: 
                l(1) =   0
                l(2) =   0
                l(3) =   1
                l(4) =   1
                l(5) =   2
                l(6) =   2
     Q(r) pseudized with 0 coefficients 


     PseudoPot. # 2 for Ti read from file:
     ./Ti_pbe_v1.4.uspp.F.UPF
     MD5 check sum: 88a00a6731bd790ddea75d31a80cb452
     Pseudo is Ultrasoft + core correction, Zval = 12.0
     Generated by new atomic code, or converted to UPF format
     Using radial grid of  851 points,  6 beta functions with: 
                l(1) =   0
                l(2) =   0
                l(3) =   1
                l(4) =   1
                l(5) =   2
                l(6) =   2
     Q(r) pseudized with  6 coefficients,  rinner =    1.000   1.000   1.000
                                                       1.000   1.000

     atomic species   valence    mass     pseudopotential
     Fe               16.00    55.84500     Fe( 1.00)
     Ti               12.00    47.86700     Ti( 1.00)

     48 Sym. Ops., with inversion, found



   Cartesian axes

     site n.     atom                  positions (alat units)
         1        Fe     tau(   1) = (   0.5000000   0.5000000   0.5000000  )
         2        Ti     tau(   2) = (   0.0000000   0.0000000   0.0000000  )

     number of k points=   816  Marzari-Vanderbilt smearing, width (Ry)=  0.0050

     Number of k-points >= 100: set verbosity='high' to print them.

     Dense  grid:    63077 G-vectors     FFT dimensions: (  50,  50,  50)

     Smooth grid:    11753 G-vectors     FFT dimensions: (  30,  30,  30)

     Estimated max dynamical RAM per process >      74.95 MB

     Estimated total dynamical RAM >     599.62 MB

     Check: negative core charge=   -0.000015

     Initial potential from superposition of free atoms

     starting charge      26.9995, renormalised to      28.0000

     negative rho (up, down):  1.188E-03 0.000E+00
     Starting wfcs are   23 randomized atomic wfcs
     Checking if some PAW data can be deallocated... 

     total cpu time spent up to now is        2.8 secs

     per-process dynamical memory:   162.8 Mb

     Self-consistent Calculation

     iteration #  1     ecut=    64.00 Ry     beta= 0.70
     Davidson diagonalization with overlap
     ethr =  1.00E-02,  avg # of iterations =  2.1

     negative rho (up, down):  2.077E-04 0.000E+00

     total cpu time spent up to now is        7.8 secs

     total energy              =    -434.93189663 Ry
     estimated scf accuracy    <      17.41343135 Ry

     iteration #  2     ecut=    64.00 Ry     beta= 0.70
     Davidson diagonalization with overlap
     ethr =  1.00E-02,  avg # of iterations =  6.1

     negative rho (up, down):  7.325E-05 0.000E+00

     total cpu time spent up to now is       17.2 secs

     total energy              =    -448.54854885 Ry
     estimated scf accuracy    <      65.76039749 Ry

     iteration #  3     ecut=    64.00 Ry     beta= 0.70
     Davidson diagonalization with overlap
     ethr =  1.00E-02,  avg # of iterations =  3.1

     negative rho (up, down):  1.537E-04 0.000E+00

     total cpu time spent up to now is       23.3 secs

     total energy              =    -448.58034038 Ry
     estimated scf accuracy    <      16.74165078 Ry

     iteration #  4     ecut=    64.00 Ry     beta= 0.70
     Davidson diagonalization with overlap
     ethr =  1.00E-02,  avg # of iterations =  2.1

     negative rho (up, down):  1.922E-04 0.000E+00

     total cpu time spent up to now is       28.2 secs

     total energy              =    -449.10513076 Ry
     estimated scf accuracy    <       4.72396905 Ry

     iteration #  5     ecut=    64.00 Ry     beta= 0.70
     Davidson diagonalization with overlap
     ethr =  1.00E-02,  avg # of iterations =  1.0

     negative rho (up, down):  2.135E-04 0.000E+00

     total cpu time spent up to now is       32.1 secs

     total energy              =    -449.12355112 Ry
     estimated scf accuracy    <       4.32642341 Ry

     iteration #  6     ecut=    64.00 Ry     beta= 0.70
     Davidson diagonalization with overlap
     ethr =  1.00E-02,  avg # of iterations =  1.0

     negative rho (up, down):  8.138E-04 0.000E+00

     total cpu time spent up to now is       36.1 secs

     total energy              =    -448.13435720 Ry
     estimated scf accuracy    <       4.40905604 Ry

     iteration #  7     ecut=    64.00 Ry     beta= 0.70
     Davidson diagonalization with overlap
     ethr =  1.00E-02,  avg # of iterations =  2.1

     negative rho (up, down):  7.832E-04 0.000E+00

     total cpu time spent up to now is       40.5 secs

     total energy              =    -448.54843080 Ry
     estimated scf accuracy    <       0.31201860 Ry

     iteration #  8     ecut=    64.00 Ry     beta= 0.70
     Davidson diagonalization with overlap
     ethr =  1.11E-03,  avg # of iterations =  3.1

     negative rho (up, down):  8.205E-04 0.000E+00

     total cpu time spent up to now is       45.4 secs

     total energy              =    -448.57812522 Ry
     estimated scf accuracy    <       0.07241454 Ry

     iteration #  9     ecut=    64.00 Ry     beta= 0.70
     Davidson diagonalization with overlap
     ethr =  2.59E-04,  avg # of iterations =  4.2

     negative rho (up, down):  1.012E-03 0.000E+00

     total cpu time spent up to now is       51.1 secs

     total energy              =    -448.58272285 Ry
     estimated scf accuracy    <       0.04465884 Ry

     iteration # 10     ecut=    64.00 Ry     beta= 0.70
     Davidson diagonalization with overlap
     ethr =  1.59E-04,  avg # of iterations =  5.3

     negative rho (up, down):  8.906E-04 0.000E+00

     total cpu time spent up to now is       58.2 secs

     total energy              =    -448.59440634 Ry
     estimated scf accuracy    <       0.40763035 Ry

     iteration # 11     ecut=    64.00 Ry     beta= 0.70
     Davidson diagonalization with overlap
     ethr =  1.59E-04,  avg # of iterations =  1.7

     negative rho (up, down):  7.622E-04 0.000E+00

     total cpu time spent up to now is       62.5 secs

     total energy              =    -448.57240396 Ry
     estimated scf accuracy    <       0.21904796 Ry

     iteration # 12     ecut=    64.00 Ry     beta= 0.70
     Davidson diagonalization with overlap
     ethr =  1.59E-04,  avg # of iterations =  3.5

     negative rho (up, down):  7.607E-04 0.000E+00

     total cpu time spent up to now is       67.7 secs

     total energy              =    -448.57256625 Ry
     estimated scf accuracy    <       0.04044962 Ry

     iteration # 13     ecut=    64.00 Ry     beta= 0.70
     Davidson diagonalization with overlap
     ethr =  1.44E-04,  avg # of iterations =  3.2

     negative rho (up, down):  7.713E-04 0.000E+00

     total cpu time spent up to now is       72.5 secs

     total energy              =    -448.58402512 Ry
     estimated scf accuracy    <       0.08444943 Ry

     iteration # 14     ecut=    64.00 Ry     beta= 0.70
     Davidson diagonalization with overlap
     ethr =  1.44E-04,  avg # of iterations =  1.0

     negative rho (up, down):  1.012E-03 0.000E+00

     total cpu time spent up to now is       76.4 secs

     total energy              =    -448.56761183 Ry
     estimated scf accuracy    <       0.07213762 Ry

     iteration # 15     ecut=    64.00 Ry     beta= 0.70
     Davidson diagonalization with overlap
     ethr =  1.44E-04,  avg # of iterations =  3.8

     negative rho (up, down):  8.815E-04 0.000E+00

     total cpu time spent up to now is       82.1 secs

     total energy              =    -448.57160944 Ry
     estimated scf accuracy    <       0.09000246 Ry

     iteration # 16     ecut=    64.00 Ry     beta= 0.70
     Davidson diagonalization with overlap
     ethr =  1.44E-04,  avg # of iterations =  2.7

     negative rho (up, down):  8.781E-04 0.000E+00

     total cpu time spent up to now is       86.7 secs

     total energy              =    -448.57899908 Ry
     estimated scf accuracy    <       0.00059990 Ry

     iteration # 17     ecut=    64.00 Ry     beta= 0.70
     Davidson diagonalization with overlap
     c_bands:  1 eigenvalues not converged
     c_bands:  1 eigenvalues not converged
     ethr =  2.14E-06,  avg # of iterations =  4.3

     negative rho (up, down):  8.795E-04 0.000E+00

     total cpu time spent up to now is       93.1 secs

     total energy              =    -448.57930359 Ry
     estimated scf accuracy    <       0.00052136 Ry

     iteration # 18     ecut=    64.00 Ry     beta= 0.70
     Davidson diagonalization with overlap
     ethr =  1.86E-06,  avg # of iterations =  1.5

     negative rho (up, down):  8.789E-04 0.000E+00

     total cpu time spent up to now is       97.3 secs

     total energy              =    -448.57934733 Ry
     estimated scf accuracy    <       0.00005070 Ry

     iteration # 19     ecut=    64.00 Ry     beta= 0.70
     Davidson diagonalization with overlap
     ethr =  1.81E-07,  avg # of iterations =  4.4

     negative rho (up, down):  8.741E-04 0.000E+00

     total cpu time spent up to now is      103.1 secs

     total energy              =    -448.57932987 Ry
     estimated scf accuracy    <       0.00009854 Ry

     iteration # 20     ecut=    64.00 Ry     beta= 0.70
     Davidson diagonalization with overlap
     ethr =  1.81E-07,  avg # of iterations =  2.3

     negative rho (up, down):  8.754E-04 0.000E+00

     total cpu time spent up to now is      107.9 secs

     total energy              =    -448.57933564 Ry
     estimated scf accuracy    <       0.00010529 Ry

     iteration # 21     ecut=    64.00 Ry     beta= 0.70
     Davidson diagonalization with overlap
     ethr =  1.81E-07,  avg # of iterations =  2.2

     negative rho (up, down):  8.761E-04 0.000E+00

     total cpu time spent up to now is      112.6 secs

     total energy              =    -448.57932903 Ry
     estimated scf accuracy    <       0.00003382 Ry

     iteration # 22     ecut=    64.00 Ry     beta= 0.70
     Davidson diagonalization with overlap
     ethr =  1.21E-07,  avg # of iterations =  2.0

     negative rho (up, down):  8.762E-04 0.000E+00

     total cpu time spent up to now is      117.3 secs

     total energy              =    -448.57933312 Ry
     estimated scf accuracy    <       0.00000282 Ry

     iteration # 23     ecut=    64.00 Ry     beta= 0.70
     Davidson diagonalization with overlap
     ethr =  1.01E-08,  avg # of iterations =  4.9

     negative rho (up, down):  8.758E-04 0.000E+00

     total cpu time spent up to now is      124.0 secs

     total energy              =    -448.57933429 Ry
     estimated scf accuracy    <       0.00000109 Ry

     iteration # 24     ecut=    64.00 Ry     beta= 0.70
     Davidson diagonalization with overlap
     ethr =  3.88E-09,  avg # of iterations =  1.2

     negative rho (up, down):  8.757E-04 0.000E+00

     total cpu time spent up to now is      127.9 secs

     total energy              =    -448.57933422 Ry
     estimated scf accuracy    <       0.00000037 Ry

     iteration # 25     ecut=    64.00 Ry     beta= 0.70
     Davidson diagonalization with overlap
     ethr =  1.32E-09,  avg # of iterations =  3.0

     negative rho (up, down):  8.757E-04 0.000E+00

     total cpu time spent up to now is      133.1 secs

     total energy              =    -448.57933429 Ry
     estimated scf accuracy    <       0.00000005 Ry

     iteration # 26     ecut=    64.00 Ry     beta= 0.70
     Davidson diagonalization with overlap
     ethr =  1.94E-10,  avg # of iterations =  1.9

     negative rho (up, down):  8.758E-04 0.000E+00

     total cpu time spent up to now is      137.4 secs

     End of self-consistent calculation

     Number of k-points >= 100: set verbosity='high' to print the bands.

     the Fermi energy is    17.6812 ev

!    total energy              =    -448.57933429 Ry
     estimated scf accuracy    <          1.6E-09 Ry
     smearing contrib. (-TS)   =       0.00000789 Ry
     internal energy E=F+TS    =    -448.57934219 Ry

     The total energy is F=E-TS. E is the sum of the following terms:
     one-electron contribution =    -151.33424146 Ry
     hartree contribution      =      91.61587242 Ry
     xc contribution           =     -52.88789189 Ry
     ewald contribution        =    -259.82070277 Ry
     one-center paw contrib.   =     -76.15237849 Ry

     convergence has been achieved in  26 iterations

     negative rho (up, down):  8.758E-04 0.000E+00

     Forces acting on atoms (cartesian axes, Ry/au):

     atom    1 type  1   force =     0.00000000    0.00000000    0.00000000
     atom    2 type  2   force =     0.00000000    0.00000000    0.00000000

     Total force =     0.000000     Total SCF correction =     0.000000


     Computing stress (Cartesian axis) and pressure


     negative rho (up, down):  8.758E-04 0.000E+00
          total   stress  (Ry/bohr**3)                   (kbar)     P=       21.06
   0.00014313   0.00000000   0.00000000           21.06        0.00        0.00
   0.00000000   0.00014313   0.00000000            0.00       21.06        0.00
   0.00000000   0.00000000   0.00014313            0.00        0.00       21.06


     Writing all to output data dir ./TiFe.save/ :
     XML data file, charge density, pseudopotentials, collected wavefunctions

     init_run     :      2.50s CPU      2.60s WALL (       1 calls)
     electrons    :    129.59s CPU    134.67s WALL (       1 calls)
     forces       :      0.30s CPU      0.31s WALL (       1 calls)
     stress       :      1.43s CPU      1.45s WALL (       1 calls)

     Called by init_run:
     wfcinit      :      1.96s CPU      2.03s WALL (       1 calls)
     potinit      :      0.21s CPU      0.23s WALL (       1 calls)
     hinit0       :      0.24s CPU      0.24s WALL (       1 calls)

     Called by electrons:
     c_bands      :    111.23s CPU    115.48s WALL (      26 calls)
     sum_band     :     15.75s CPU     16.47s WALL (      26 calls)
     v_of_rho     :      0.16s CPU      0.18s WALL (      27 calls)
     newd         :      1.10s CPU      1.12s WALL (      27 calls)
     PAW_pot      :      1.39s CPU      1.42s WALL (      27 calls)
     mix_rho      :      0.02s CPU      0.02s WALL (      26 calls)

     Called by c_bands:
     init_us_2    :      2.52s CPU      2.63s WALL (   44880 calls)
     cegterg      :    106.75s CPU    110.83s WALL (   21216 calls)

     Called by *egterg:
     cdiaghg      :     22.23s CPU     22.98s WALL (   81341 calls)
     h_psi        :     73.50s CPU     76.46s WALL (   82157 calls)
     s_psi        :      1.93s CPU      2.01s WALL (   82157 calls)
     g_psi        :      0.38s CPU      0.40s WALL (   60125 calls)

     Called by h_psi:
     h_psi:calbec :      3.43s CPU      3.57s WALL (   82157 calls)
     vloc_psi     :     67.49s CPU     70.21s WALL (   82157 calls)
     add_vuspsi   :      2.15s CPU      2.25s WALL (   82157 calls)

     General routines
     calbec       :      5.01s CPU      5.24s WALL (  117245 calls)
     fft          :      0.24s CPU      0.25s WALL (     374 calls)
     ffts         :      0.15s CPU      0.15s WALL (      53 calls)
     fftw         :     61.61s CPU     64.14s WALL ( 2316228 calls)
     interpolate  :      0.16s CPU      0.16s WALL (      27 calls)

     Parallel routines

     PWSCF        :    134.68s CPU    155.70s WALL


   This run was terminated on:  22:24:23  27Oct2025            

=------------------------------------------------------------------------------=
   JOB DONE.
=------------------------------------------------------------------------------=
Note: The following floating-point exceptions are signalling: IEEE_UNDERFLOW_FLAG IEEE_DENORMAL
Note: The following floating-point exceptions are signalling: IEEE_UNDERFLOW_FLAG IEEE_DENORMAL
Note: The following floating-point exceptions are signalling: IEEE_UNDERFLOW_FLAG IEEE_DENORMAL
Note: The following floating-point exceptions are signalling: IEEE_UNDERFLOW_FLAG IEEE_DENORMAL
Note: The following floating-point exceptions are signalling: IEEE_UNDERFLOW_FLAG IEEE_DENORMAL
Note: The following floating-point exceptions are signalling: IEEE_UNDERFLOW_FLAG IEEE_DENORMAL
Note: The following floating-point exceptions are signalling: IEEE_UNDERFLOW_FLAG IEEE_DENORMAL
Note: The following floating-point exceptions are signalling: IEEE_UNDERFLOW_FLAG IEEE_DENORMAL
