
     Program PWSCF v.7.4 starts on 27Oct2025 at 21:57:10 

     This program is part of the open-source Quantum ESPRESSO suite
     for quantum simulation of materials; please cite
         "P. Giannozzi et al., J. Phys.:Condens. Matter 21 395502 (2009);
         "P. Giannozzi et al., J. Phys.:Condens. Matter 29 465901 (2017);
         "P. Giannozzi et al., J. Chem. Phys. 152 154105 (2020);
          URL http://www.quantum-espresso.org", 
     in publications or presentations arising from this work. More details at
     http://www.quantum-espresso.org/quote

     Parallel version (MPI & OpenMP), running on       8 processor cores
     Number of MPI processes:                 8
     Threads/MPI process:                     1

     MPI processes distributed on     1 nodes
     183315 MiB available memory on the printing compute node when the environment starts

     Reading input from TiFe_kmesh_convergence/TiFe2_k666.in

     Current dimensions of program PWSCF are:
     Max number of different atomic species (ntypx) = 10
     Max number of k-points (npk) =  40000
     Max angular momentum in pseudopotentials (lmaxx) =  4
     file Fe.pbe-spn-kjpaw_psl.0.2.1.UPF: wavefunction(s)  3D renormalized

     IMPORTANT: XC functional enforced from input :
     Exchange-correlation= PBE
                           (   1   4   3   4   0   0   0)
     Any further DFT definition will be discarded
     Please, verify this is what you really want

     Message from routine setup:
     using ibrav=0 with symmetry is DISCOURAGED, use correct ibrav instead

     R & G space division:  proc/nbgrp/npool/nimage =       8
     Subspace diagonalization in iterative solution of the eigenvalue problem:
     a serial algorithm will be used


     Parallelization info
     --------------------
     sticks:   dense  smooth     PW     G-vecs:    dense   smooth      PW
     Min         239      77     24                 7884     1467     262
     Max         242      78     25                 7885     1470     265
     Sum        1917     621    193                63077    11753    2103

     Using Slab Decomposition



     bravais-lattice index     =            0
     lattice parameter (alat)  =       5.5533  a.u.
     unit-cell volume          =     171.2590 (a.u.)^3
     number of atoms/cell      =            2
     number of atomic types    =            2
     number of electrons       =        28.00
     number of Kohn-Sham states=           18
     kinetic-energy cutoff     =      64.0000  Ry
     charge density cutoff     =     782.0000  Ry
     scf convergence threshold =      1.0E-08
     mixing beta               =       0.7000
     number of iterations used =            8  plain     mixing
     Exchange-correlation= PBE
                           (   1   4   3   4   0   0   0)

     celldm(1)=   5.553300  celldm(2)=   0.000000  celldm(3)=   0.000000
     celldm(4)=   0.000000  celldm(5)=   0.000000  celldm(6)=   0.000000

     crystal axes: (cart. coord. in units of alat)
               a(1) = (   1.000000   0.000000   0.000000 )  
               a(2) = (   0.000000   1.000000   0.000000 )  
               a(3) = (   0.000000   0.000000   1.000000 )  

     reciprocal axes: (cart. coord. in units 2 pi/alat)
               b(1) = (  1.000000  0.000000  0.000000 )  
               b(2) = (  0.000000  1.000000  0.000000 )  
               b(3) = (  0.000000  0.000000  1.000000 )  


     PseudoPot. # 1 for Fe read from file:
     ./Fe.pbe-spn-kjpaw_psl.0.2.1.UPF
     MD5 check sum: e86618425769142926afa95317d90200
     Pseudo is Projector augmented-wave + core cor, Zval = 16.0
     Generated using "atomic" code by A. Dal Corso  v.5.0.99 svn rev. 10869
     Shape of augmentation charge: PSQ
     Using radial grid of 1191 points,  6 beta functions with: 
                l(1) =   0
                l(2) =   0
                l(3) =   1
                l(4) =   1
                l(5) =   2
                l(6) =   2
     Q(r) pseudized with 0 coefficients 


     PseudoPot. # 2 for Ti read from file:
     ./Ti_pbe_v1.4.uspp.F.UPF
     MD5 check sum: 88a00a6731bd790ddea75d31a80cb452
     Pseudo is Ultrasoft + core correction, Zval = 12.0
     Generated by new atomic code, or converted to UPF format
     Using radial grid of  851 points,  6 beta functions with: 
                l(1) =   0
                l(2) =   0
                l(3) =   1
                l(4) =   1
                l(5) =   2
                l(6) =   2
     Q(r) pseudized with  6 coefficients,  rinner =    1.000   1.000   1.000
                                                       1.000   1.000

     atomic species   valence    mass     pseudopotential
     Fe               16.00    55.84500     Fe( 1.00)
     Ti               12.00    47.86700     Ti( 1.00)

     48 Sym. Ops., with inversion, found



   Cartesian axes

     site n.     atom                  positions (alat units)
         1        Fe     tau(   1) = (   0.5000000   0.5000000   0.5000000  )
         2        Ti     tau(   2) = (   0.0000000   0.0000000   0.0000000  )

     number of k points=    20  Marzari-Vanderbilt smearing, width (Ry)=  0.0050
                       cart. coord. in units 2pi/alat
        k(    1) = (   0.0000000   0.0000000   0.0000000), wk =   0.0092593
        k(    2) = (   0.0000000   0.0000000   0.1666667), wk =   0.0555556
        k(    3) = (   0.0000000   0.0000000   0.3333333), wk =   0.0555556
        k(    4) = (   0.0000000   0.0000000  -0.5000000), wk =   0.0277778
        k(    5) = (   0.0000000   0.1666667   0.1666667), wk =   0.1111111
        k(    6) = (   0.0000000   0.1666667   0.3333333), wk =   0.2222222
        k(    7) = (   0.0000000   0.1666667  -0.5000000), wk =   0.1111111
        k(    8) = (   0.0000000   0.3333333   0.3333333), wk =   0.1111111
        k(    9) = (   0.0000000   0.3333333  -0.5000000), wk =   0.1111111
        k(   10) = (   0.0000000  -0.5000000  -0.5000000), wk =   0.0277778
        k(   11) = (   0.1666667   0.1666667   0.1666667), wk =   0.0740741
        k(   12) = (   0.1666667   0.1666667   0.3333333), wk =   0.2222222
        k(   13) = (   0.1666667   0.1666667  -0.5000000), wk =   0.1111111
        k(   14) = (   0.1666667   0.3333333   0.3333333), wk =   0.2222222
        k(   15) = (   0.1666667   0.3333333  -0.5000000), wk =   0.2222222
        k(   16) = (   0.1666667  -0.5000000  -0.5000000), wk =   0.0555556
        k(   17) = (   0.3333333   0.3333333   0.3333333), wk =   0.0740741
        k(   18) = (   0.3333333   0.3333333  -0.5000000), wk =   0.1111111
        k(   19) = (   0.3333333  -0.5000000  -0.5000000), wk =   0.0555556
        k(   20) = (  -0.5000000  -0.5000000  -0.5000000), wk =   0.0092593

     Dense  grid:    63077 G-vectors     FFT dimensions: (  50,  50,  50)

     Smooth grid:    11753 G-vectors     FFT dimensions: (  30,  30,  30)

     Estimated max dynamical RAM per process >      34.51 MB

     Estimated total dynamical RAM >     276.05 MB

     Check: negative core charge=   -0.000015

     Initial potential from superposition of free atoms

     starting charge      26.9995, renormalised to      28.0000

     negative rho (up, down):  1.188E-03 0.000E+00
     Starting wfcs are   23 randomized atomic wfcs
     Checking if some PAW data can be deallocated... 

     total cpu time spent up to now is        1.0 secs

     per-process dynamical memory:   140.7 Mb

     Self-consistent Calculation

     iteration #  1     ecut=    64.00 Ry     beta= 0.70
     Davidson diagonalization with overlap
     ethr =  1.00E-02,  avg # of iterations =  2.2

     negative rho (up, down):  2.081E-04 0.000E+00

     total cpu time spent up to now is        1.3 secs

     WARNING: integrated charge=    28.00020151, expected=    28.00000000

     total energy              =    -434.93398603 Ry
     estimated scf accuracy    <      17.41121392 Ry

     iteration #  2     ecut=    64.00 Ry     beta= 0.70
     Davidson diagonalization with overlap
     ethr =  1.00E-02,  avg # of iterations =  6.0

     negative rho (up, down):  7.346E-05 0.000E+00

     total cpu time spent up to now is        1.7 secs

     WARNING: integrated charge=    28.00015371, expected=    28.00000000

     total energy              =    -448.55297090 Ry
     estimated scf accuracy    <      65.72051366 Ry

     iteration #  3     ecut=    64.00 Ry     beta= 0.70
     Davidson diagonalization with overlap
     ethr =  1.00E-02,  avg # of iterations =  3.1

     negative rho (up, down):  1.554E-04 0.000E+00

     total cpu time spent up to now is        2.1 secs

     WARNING: integrated charge=    28.00012255, expected=    28.00000000

     total energy              =    -448.56831193 Ry
     estimated scf accuracy    <      16.75243290 Ry

     iteration #  4     ecut=    64.00 Ry     beta= 0.70
     Davidson diagonalization with overlap
     ethr =  1.00E-02,  avg # of iterations =  2.1

     negative rho (up, down):  1.972E-04 0.000E+00

     total cpu time spent up to now is        2.4 secs

     WARNING: integrated charge=    28.00011938, expected=    28.00000000

     total energy              =    -449.08522018 Ry
     estimated scf accuracy    <       4.87714309 Ry

     iteration #  5     ecut=    64.00 Ry     beta= 0.70
     Davidson diagonalization with overlap
     ethr =  1.00E-02,  avg # of iterations =  1.1

     negative rho (up, down):  2.137E-04 0.000E+00

     total cpu time spent up to now is        2.7 secs

     WARNING: integrated charge=    28.00011758, expected=    28.00000000

     total energy              =    -449.10430289 Ry
     estimated scf accuracy    <       4.44832307 Ry

     iteration #  6     ecut=    64.00 Ry     beta= 0.70
     Davidson diagonalization with overlap
     ethr =  1.00E-02,  avg # of iterations =  1.0

     negative rho (up, down):  6.237E-04 0.000E+00

     total cpu time spent up to now is        3.0 secs

     WARNING: integrated charge=    28.00008463, expected=    28.00000000

     total energy              =    -448.38353128 Ry
     estimated scf accuracy    <       4.48801902 Ry

     iteration #  7     ecut=    64.00 Ry     beta= 0.70
     Davidson diagonalization with overlap
     ethr =  1.00E-02,  avg # of iterations =  1.4

     negative rho (up, down):  6.235E-04 0.000E+00

     total cpu time spent up to now is        3.2 secs

     WARNING: integrated charge=    28.00007957, expected=    28.00000000

     total energy              =    -448.61650789 Ry
     estimated scf accuracy    <       0.36016384 Ry

     iteration #  8     ecut=    64.00 Ry     beta= 0.70
     Davidson diagonalization with overlap
     ethr =  1.29E-03,  avg # of iterations =  2.4

     negative rho (up, down):  1.471E-03 0.000E+00

     total cpu time spent up to now is        3.5 secs

     total energy              =    -448.43350546 Ry
     estimated scf accuracy    <       0.69349726 Ry

     iteration #  9     ecut=    64.00 Ry     beta= 0.70
     Davidson diagonalization with overlap
     ethr =  1.29E-03,  avg # of iterations =  4.5

     negative rho (up, down):  1.071E-03 0.000E+00

     total cpu time spent up to now is        3.9 secs

     WARNING: integrated charge=    28.00001004, expected=    28.00000000

     total energy              =    -448.60184652 Ry
     estimated scf accuracy    <       1.93439762 Ry

     iteration # 10     ecut=    64.00 Ry     beta= 0.70
     Davidson diagonalization with overlap
     ethr =  1.29E-03,  avg # of iterations =  1.6

     negative rho (up, down):  1.045E-03 0.000E+00

     total cpu time spent up to now is        4.2 secs

     WARNING: integrated charge=    28.00000785, expected=    28.00000000

     total energy              =    -448.64461016 Ry
     estimated scf accuracy    <       0.66492119 Ry

     iteration # 11     ecut=    64.00 Ry     beta= 0.70
     Davidson diagonalization with overlap
     ethr =  1.29E-03,  avg # of iterations =  1.4

     negative rho (up, down):  7.525E-04 0.000E+00

     total cpu time spent up to now is        4.5 secs

     WARNING: integrated charge=    28.00000895, expected=    28.00000000

     total energy              =    -448.48497824 Ry
     estimated scf accuracy    <       1.41255216 Ry

     iteration # 12     ecut=    64.00 Ry     beta= 0.70
     Davidson diagonalization with overlap
     ethr =  1.29E-03,  avg # of iterations =  3.0
     Minimization algorithm failed to find Fermi energy: reverting to bisection
     Possible cause: smearing is larger than the electronic band-gap.

     negative rho (up, down):  6.468E-04 0.000E+00

     total cpu time spent up to now is        4.8 secs

     total energy              =    -448.58218775 Ry
     estimated scf accuracy    <       0.01701537 Ry

     iteration # 13     ecut=    64.00 Ry     beta= 0.70
     Davidson diagonalization with overlap
     ethr =  6.08E-05,  avg # of iterations =  4.7

     negative rho (up, down):  7.190E-04 0.000E+00

     total cpu time spent up to now is        5.1 secs

     total energy              =    -448.57998589 Ry
     estimated scf accuracy    <       0.18745319 Ry

     iteration # 14     ecut=    64.00 Ry     beta= 0.70
     Davidson diagonalization with overlap
     ethr =  6.08E-05,  avg # of iterations =  2.4

     negative rho (up, down):  1.644E-03 0.000E+00

     total cpu time spent up to now is        5.4 secs

     WARNING: integrated charge=    28.00000293, expected=    28.00000000

     total energy              =    -448.56140120 Ry
     estimated scf accuracy    <       0.05223068 Ry

     iteration # 15     ecut=    64.00 Ry     beta= 0.70
     Davidson diagonalization with overlap
     ethr =  6.08E-05,  avg # of iterations =  7.0

     negative rho (up, down):  7.190E-04 0.000E+00

     total cpu time spent up to now is        5.9 secs

     WARNING: integrated charge=    28.00000303, expected=    28.00000000

     total energy              =    -448.33032521 Ry
     estimated scf accuracy    <       2.53174625 Ry

     iteration # 16     ecut=    64.00 Ry     beta= 0.70
     Davidson diagonalization with overlap
     ethr =  6.08E-05,  avg # of iterations =  6.5

     negative rho (up, down):  7.765E-04 0.000E+00

     total cpu time spent up to now is        6.3 secs

     total energy              =    -448.57937875 Ry
     estimated scf accuracy    <       0.04543479 Ry

     iteration # 17     ecut=    64.00 Ry     beta= 0.70
     Davidson diagonalization with overlap
     ethr =  6.08E-05,  avg # of iterations =  1.2

     negative rho (up, down):  8.166E-04 0.000E+00

     total cpu time spent up to now is        6.6 secs

     total energy              =    -448.57735366 Ry
     estimated scf accuracy    <       0.03090485 Ry

     iteration # 18     ecut=    64.00 Ry     beta= 0.70
     Davidson diagonalization with overlap
     ethr =  6.08E-05,  avg # of iterations =  1.6

     negative rho (up, down):  8.105E-04 0.000E+00

     total cpu time spent up to now is        6.8 secs

     total energy              =    -448.57819101 Ry
     estimated scf accuracy    <       0.01491573 Ry

     iteration # 19     ecut=    64.00 Ry     beta= 0.70
     Davidson diagonalization with overlap
     ethr =  5.33E-05,  avg # of iterations =  1.0

     negative rho (up, down):  8.571E-04 0.000E+00

     total cpu time spent up to now is        7.1 secs

     total energy              =    -448.57599036 Ry
     estimated scf accuracy    <       0.02186869 Ry

     iteration # 20     ecut=    64.00 Ry     beta= 0.70
     Davidson diagonalization with overlap
     ethr =  5.33E-05,  avg # of iterations =  1.1

     negative rho (up, down):  9.151E-04 0.000E+00

     total cpu time spent up to now is        7.4 secs

     total energy              =    -448.57589323 Ry
     estimated scf accuracy    <       0.00230956 Ry

     iteration # 21     ecut=    64.00 Ry     beta= 0.70
     Davidson diagonalization with overlap
     ethr =  8.25E-06,  avg # of iterations =  4.3

     negative rho (up, down):  9.112E-04 0.000E+00

     total cpu time spent up to now is        7.8 secs

     total energy              =    -448.57707415 Ry
     estimated scf accuracy    <       0.00683787 Ry

     iteration # 22     ecut=    64.00 Ry     beta= 0.70
     Davidson diagonalization with overlap
     ethr =  8.25E-06,  avg # of iterations =  1.0

     negative rho (up, down):  8.910E-04 0.000E+00

     total cpu time spent up to now is        8.0 secs

     total energy              =    -448.57655101 Ry
     estimated scf accuracy    <       0.00539763 Ry

     iteration # 23     ecut=    64.00 Ry     beta= 0.70
     Davidson diagonalization with overlap
     ethr =  8.25E-06,  avg # of iterations =  1.6

     negative rho (up, down):  8.738E-04 0.000E+00

     total cpu time spent up to now is        8.3 secs

     total energy              =    -448.57652922 Ry
     estimated scf accuracy    <       0.00093327 Ry

     iteration # 24     ecut=    64.00 Ry     beta= 0.70
     Davidson diagonalization with overlap
     ethr =  3.33E-06,  avg # of iterations =  3.5

     negative rho (up, down):  8.826E-04 0.000E+00

     total cpu time spent up to now is        8.6 secs

     total energy              =    -448.57662946 Ry
     estimated scf accuracy    <       0.00014423 Ry

     iteration # 25     ecut=    64.00 Ry     beta= 0.70
     Davidson diagonalization with overlap
     ethr =  5.15E-07,  avg # of iterations =  3.1

     negative rho (up, down):  8.825E-04 0.000E+00

     total cpu time spent up to now is        8.9 secs

     total energy              =    -448.57667795 Ry
     estimated scf accuracy    <       0.00017338 Ry

     iteration # 26     ecut=    64.00 Ry     beta= 0.70
     Davidson diagonalization with overlap
     ethr =  5.15E-07,  avg # of iterations =  1.0

     negative rho (up, down):  8.829E-04 0.000E+00

     total cpu time spent up to now is        9.1 secs

     total energy              =    -448.57667426 Ry
     estimated scf accuracy    <       0.00028653 Ry

     iteration # 27     ecut=    64.00 Ry     beta= 0.70
     Davidson diagonalization with overlap
     ethr =  5.15E-07,  avg # of iterations =  1.0

     negative rho (up, down):  8.838E-04 0.000E+00

     total cpu time spent up to now is        9.4 secs

     total energy              =    -448.57667279 Ry
     estimated scf accuracy    <       0.00021956 Ry

     iteration # 28     ecut=    64.00 Ry     beta= 0.70
     Davidson diagonalization with overlap
     ethr =  5.15E-07,  avg # of iterations =  1.0

     negative rho (up, down):  8.840E-04 0.000E+00

     total cpu time spent up to now is        9.7 secs

     total energy              =    -448.57666486 Ry
     estimated scf accuracy    <       0.00018706 Ry

     iteration # 29     ecut=    64.00 Ry     beta= 0.70
     Davidson diagonalization with overlap
     ethr =  5.15E-07,  avg # of iterations =  1.0

     negative rho (up, down):  8.840E-04 0.000E+00

     total cpu time spent up to now is        9.9 secs

     total energy              =    -448.57665595 Ry
     estimated scf accuracy    <       0.00008814 Ry

     iteration # 30     ecut=    64.00 Ry     beta= 0.70
     Davidson diagonalization with overlap
     ethr =  3.15E-07,  avg # of iterations =  1.6

     negative rho (up, down):  8.840E-04 0.000E+00

     total cpu time spent up to now is       10.2 secs

     total energy              =    -448.57666058 Ry
     estimated scf accuracy    <       0.00000033 Ry

     iteration # 31     ecut=    64.00 Ry     beta= 0.70
     Davidson diagonalization with overlap
     ethr =  1.18E-09,  avg # of iterations =  5.4

     negative rho (up, down):  8.840E-04 0.000E+00

     total cpu time spent up to now is       10.6 secs

     total energy              =    -448.57666090 Ry
     estimated scf accuracy    <       0.00000027 Ry

     iteration # 32     ecut=    64.00 Ry     beta= 0.70
     Davidson diagonalization with overlap
     ethr =  9.79E-10,  avg # of iterations =  1.0

     negative rho (up, down):  8.840E-04 0.000E+00

     total cpu time spent up to now is       10.8 secs

     total energy              =    -448.57666090 Ry
     estimated scf accuracy    <       0.00000013 Ry

     iteration # 33     ecut=    64.00 Ry     beta= 0.70
     Davidson diagonalization with overlap
     ethr =  4.59E-10,  avg # of iterations =  1.2

     negative rho (up, down):  8.840E-04 0.000E+00

     total cpu time spent up to now is       11.1 secs

     total energy              =    -448.57666091 Ry
     estimated scf accuracy    <       0.00000011 Ry

     iteration # 34     ecut=    64.00 Ry     beta= 0.70
     Davidson diagonalization with overlap
     ethr =  4.03E-10,  avg # of iterations =  1.0

     negative rho (up, down):  8.841E-04 0.000E+00

     total cpu time spent up to now is       11.4 secs

     total energy              =    -448.57666089 Ry
     estimated scf accuracy    <       0.00000011 Ry

     iteration # 35     ecut=    64.00 Ry     beta= 0.70
     Davidson diagonalization with overlap
     ethr =  3.76E-10,  avg # of iterations =  2.4

     negative rho (up, down):  8.840E-04 0.000E+00

     total cpu time spent up to now is       11.7 secs

     total energy              =    -448.57666090 Ry
     estimated scf accuracy    <       0.00000005 Ry

     iteration # 36     ecut=    64.00 Ry     beta= 0.70
     Davidson diagonalization with overlap
     ethr =  1.91E-10,  avg # of iterations =  1.0

     negative rho (up, down):  8.839E-04 0.000E+00

     total cpu time spent up to now is       12.0 secs

     End of self-consistent calculation

          k = 0.0000 0.0000 0.0000 (  1419 PWs)   bands (ev):

   -69.2849 -39.1703 -35.3339 -35.3339 -35.3339 -15.2621 -15.2621 -15.2621
    10.1527  13.8388  13.8388  16.6093  16.6093  16.6093  18.9666  18.9666
    20.9149  20.9149

          k = 0.0000 0.0000 0.1667 (  1450 PWs)   bands (ev):

   -69.2842 -39.1636 -35.3424 -35.3331 -35.3331 -15.3538 -15.2566 -15.2566
    10.7230  14.1129  14.1172  16.5722  16.5722  16.7301  18.6222  19.0804
    20.1934  20.1934

          k = 0.0000 0.0000 0.3333 (  1458 PWs)   bands (ev):

   -69.2825 -39.1503 -35.3585 -35.3306 -35.3306 -15.5337 -15.2456 -15.2456
    12.2352  14.5409  14.8527  16.5348  16.5348  17.0038  17.7329  19.0275
    19.0725  19.0725

          k = 0.0000 0.0000-0.5000 (  1462 PWs)   bands (ev):

   -69.2817 -39.1437 -35.3661 -35.3296 -35.3296 -15.6221 -15.2401 -15.2401
    13.8404  14.0925  15.5063  16.5443  16.5443  17.0004  17.1629  18.5554
    18.5820  18.5820

          k = 0.0000 0.1667 0.1667 (  1460 PWs)   bands (ev):

   -69.2834 -39.1557 -35.3453 -35.3393 -35.3321 -15.3535 -15.3376 -15.2504
    11.2505  14.3031  14.4334  16.3129  16.4647  16.9205  18.6859  19.0066
    19.5198  19.6714

          k = 0.0000 0.1667 0.3333 (  1480 PWs)   bands (ev):

   -69.2818 -39.1398 -35.3612 -35.3417 -35.3299 -15.5206 -15.3288 -15.2378
    12.6006  14.5977  15.1140  16.1565  16.3281  16.7784  18.2303  18.5584
    19.2793  19.3297

          k = 0.0000 0.1667-0.5000 (  1484 PWs)   bands (ev):

   -69.2809 -39.1319 -35.3694 -35.3421 -35.3290 -15.6061 -15.3208 -15.2315
    13.8770  14.2280  15.5755  16.2274  16.3361  16.4759  17.9180  18.1330
    19.2769  19.4059

          k = 0.0000 0.3333 0.3333 (  1498 PWs)   bands (ev):

   -69.2801 -39.1187 -35.3675 -35.3615 -35.3284 -15.5010 -15.4854 -15.2220
    13.2677  14.3169  15.7305  16.0501  16.1431  16.5646  18.4698  18.9279
    19.0989  19.9815

          k = 0.0000 0.3333-0.5000 (  1482 PWs)   bands (ev):

   -69.2792 -39.1080 -35.3753 -35.3662 -35.3270 -15.5740 -15.4797 -15.2141
    13.5660  14.0702  15.6870  15.7248  16.5545  17.4833  18.0369  19.0110
    19.4454  20.4489

          k = 0.0000-0.5000-0.5000 (  1492 PWs)   bands (ev):

   -69.2784 -39.0960 -35.3785 -35.3785 -35.3261 -15.5579 -15.5579 -15.2054
    13.3464  13.9224  15.4484  15.4484  17.7070  18.1478  18.7266  18.7266
    19.4143  20.8816

          k = 0.1667 0.1667 0.1667 (  1466 PWs)   bands (ev):

   -69.2826 -39.1470 -35.3441 -35.3441 -35.3377 -15.3486 -15.3318 -15.3318
    11.7562  14.6129  14.6129  16.2032  16.2032  16.7478  18.8881  18.8881
    19.2312  20.1280

          k = 0.1667 0.1667 0.3333 (  1482 PWs)   bands (ev):

   -69.2809 -39.1295 -35.3620 -35.3416 -35.3406 -15.5088 -15.3216 -15.3202
    13.0120  14.9782  15.0560  15.9662  16.0536  16.3272  18.5955  18.8293
    19.0584  19.7975

          k = 0.1667 0.1667-0.5000 (  1472 PWs)   bands (ev):

   -69.2800 -39.1207 -35.3710 -35.3414 -35.3400 -15.5926 -15.3144 -15.3114
    14.1057  14.4996  15.4005  15.7691  16.2322  16.4762  18.2257  18.4095
    18.6236  20.5072

          k = 0.1667 0.3333 0.3333 (  1483 PWs)   bands (ev):

   -69.2792 -39.1087 -35.3658 -35.3616 -35.3395 -15.4904 -15.4794 -15.3049
    13.7544  14.7016  15.6287  15.7822  15.9677  16.0992  18.5302  18.8549
    19.2966  20.3950

          k = 0.1667 0.3333-0.5000 (  1486 PWs)   bands (ev):

   -69.2784 -39.0982 -35.3749 -35.3648 -35.3387 -15.5655 -15.4731 -15.2969
    13.9962  14.4649  15.5549  15.5606  16.3215  16.9839  18.0470  18.6268
    19.3543  20.7182

          k = 0.1667-0.5000-0.5000 (  1492 PWs)   bands (ev):

   -69.2776 -39.0869 -35.3769 -35.3769 -35.3376 -15.5519 -15.5519 -15.2889
    13.7968  14.3229  15.3878  15.3878  17.6298  17.6298  17.7167  18.1424
    19.7084  21.1856

          k = 0.3333 0.3333 0.3333 (  1463 PWs)   bands (ev):

   -69.2775 -39.0886 -35.3624 -35.3624 -35.3615 -15.4698 -15.4673 -15.4673
    14.8399  15.0934  15.4667  15.4667  15.7201  15.7201  18.3985  18.3985
    20.2097  20.2097

          k = 0.3333 0.3333-0.5000 (  1490 PWs)   bands (ev):

   -69.2768 -39.0785 -35.3741 -35.3624 -35.3613 -15.5484 -15.4612 -15.4582
    14.8252  15.0087  15.4796  15.4815  15.8311  16.3424  17.9237  18.2319
    20.2044  20.8477

          k = 0.3333-0.5000-0.5000 (  1488 PWs)   bands (ev):

   -69.2759 -39.0686 -35.3735 -35.3735 -35.3603 -15.5399 -15.5399 -15.4530
    14.9203  15.1059  15.3379  15.3379  16.3688  16.3688  17.7362  18.0036
    20.5703  21.2266

          k =-0.5000-0.5000-0.5000 (  1472 PWs)   bands (ev):

   -69.2750 -39.0594 -35.3716 -35.3716 -35.3716 -15.5338 -15.5338 -15.5338
    15.4761  15.4761  15.4761  15.7296  15.7296  15.7296  17.7460  17.7460
    21.2473  21.2473

     the Fermi energy is    17.6909 ev

!    total energy              =    -448.57666089 Ry
     estimated scf accuracy    <          8.6E-09 Ry
     smearing contrib. (-TS)   =      -0.00006959 Ry
     internal energy E=F+TS    =    -448.57659130 Ry

     The total energy is F=E-TS. E is the sum of the following terms:
     one-electron contribution =    -151.25505238 Ry
     hartree contribution      =      91.53082988 Ry
     xc contribution           =     -52.87858680 Ry
     ewald contribution        =    -259.82070277 Ry
     one-center paw contrib.   =     -76.15307923 Ry

     convergence has been achieved in  36 iterations

     negative rho (up, down):  8.839E-04 0.000E+00

     Forces acting on atoms (cartesian axes, Ry/au):

     atom    1 type  1   force =     0.00000000    0.00000000    0.00000000
     atom    2 type  2   force =     0.00000000    0.00000000    0.00000000

     Total force =     0.000000     Total SCF correction =     0.000000


     Computing stress (Cartesian axis) and pressure


     negative rho (up, down):  8.839E-04 0.000E+00
          total   stress  (Ry/bohr**3)                   (kbar)     P=       30.21
   0.00020540   0.00000000   0.00000000           30.21        0.00        0.00
   0.00000000   0.00020540   0.00000000            0.00       30.21        0.00
   0.00000000   0.00000000   0.00020540            0.00        0.00       30.21


     Writing all to output data dir ./TiFe.save/ :
     XML data file, charge density, pseudopotentials, collected wavefunctions

     init_run     :      0.65s CPU      0.71s WALL (       1 calls)
     electrons    :     10.76s CPU     11.12s WALL (       1 calls)
     forces       :      0.09s CPU      0.10s WALL (       1 calls)
     stress       :      0.46s CPU      0.46s WALL (       1 calls)

     Called by init_run:
     wfcinit      :      0.05s CPU      0.06s WALL (       1 calls)
     potinit      :      0.22s CPU      0.24s WALL (       1 calls)
     hinit0       :      0.26s CPU      0.27s WALL (       1 calls)

     Called by electrons:
     c_bands      :      3.93s CPU      4.08s WALL (      36 calls)
     sum_band     :      2.79s CPU      2.85s WALL (      36 calls)
     v_of_rho     :      0.24s CPU      0.26s WALL (      37 calls)
     newd         :      1.74s CPU      1.78s WALL (      37 calls)
     PAW_pot      :      2.11s CPU      2.16s WALL (      37 calls)
     mix_rho      :      0.03s CPU      0.04s WALL (      36 calls)

     Called by c_bands:
     init_us_2    :      0.09s CPU      0.09s WALL (    1500 calls)
     cegterg      :      3.76s CPU      3.90s WALL (     720 calls)

     Called by *egterg:
     cdiaghg      :      0.72s CPU      0.75s WALL (    2448 calls)
     h_psi        :      2.63s CPU      2.74s WALL (    2468 calls)
     s_psi        :      0.07s CPU      0.07s WALL (    2468 calls)
     g_psi        :      0.01s CPU      0.01s WALL (    1728 calls)

     Called by h_psi:
     h_psi:calbec :      0.12s CPU      0.13s WALL (    2468 calls)
     vloc_psi     :      2.42s CPU      2.52s WALL (    2468 calls)
     add_vuspsi   :      0.08s CPU      0.08s WALL (    2468 calls)

     General routines
     calbec       :      0.18s CPU      0.19s WALL (    3528 calls)
     fft          :      0.28s CPU      0.30s WALL (     504 calls)
     ffts         :      0.15s CPU      0.16s WALL (      73 calls)
     fftw         :      2.19s CPU      2.29s WALL (   76046 calls)
     interpolate  :      0.16s CPU      0.17s WALL (      37 calls)

     Parallel routines

     PWSCF        :     12.20s CPU     13.23s WALL


   This run was terminated on:  21:57:23  27Oct2025            

=------------------------------------------------------------------------------=
   JOB DONE.
=------------------------------------------------------------------------------=
Note: The following floating-point exceptions are signalling: IEEE_UNDERFLOW_FLAG IEEE_DENORMAL
Note: The following floating-point exceptions are signalling: IEEE_UNDERFLOW_FLAG IEEE_DENORMAL
Note: The following floating-point exceptions are signalling: IEEE_UNDERFLOW_FLAG IEEE_DENORMAL
Note: The following floating-point exceptions are signalling: IEEE_UNDERFLOW_FLAG IEEE_DENORMAL
Note: The following floating-point exceptions are signalling: IEEE_UNDERFLOW_FLAG IEEE_DENORMAL
Note: The following floating-point exceptions are signalling: IEEE_UNDERFLOW_FLAG IEEE_DENORMAL
Note: The following floating-point exceptions are signalling: IEEE_UNDERFLOW_FLAG IEEE_DENORMAL
Note: The following floating-point exceptions are signalling: IEEE_UNDERFLOW_FLAG IEEE_DENORMAL
