
     Program PWSCF v.7.4.1 starts on 31Oct2025 at 21:28:35 

     This program is part of the open-source Quantum ESPRESSO suite
     for quantum simulation of materials; please cite
         "P. Giannozzi et al., J. Phys.:Condens. Matter 21 395502 (2009);
         "P. Giannozzi et al., J. Phys.:Condens. Matter 29 465901 (2017);
         "P. Giannozzi et al., J. Chem. Phys. 152 154105 (2020);
          URL http://www.quantum-espresso.org", 
     in publications or presentations arising from this work. More details at
     http://www.quantum-espresso.org/quote

     Parallel version (MPI), running on     6 processors

     MPI processes distributed on     1 nodes
     2540 MiB available memory on the printing compute node when the environment starts

     Reading input from TiFe1.in

     Current dimensions of program PWSCF are:
     Max number of different atomic species (ntypx) = 10
     Max number of k-points (npk) =  40000
     Max angular momentum in pseudopotentials (lmaxx) =  4
     file Fe.pbe-spn-kjpaw_psl.0.2.1.UPF: wavefunction(s)  3D renormalized

     IMPORTANT: XC functional enforced from input :
     Exchange-correlation= PBE
                           (   1   4   3   4   0   0   0)
     Any further DFT definition will be discarded
     Please, verify this is what you really want

     Message from routine setup:
     using ibrav=0 with symmetry is DISCOURAGED, use correct ibrav instead

     R & G space division:  proc/nbgrp/npool/nimage =       6
     Subspace diagonalization in iterative solution of the eigenvalue problem:
     a serial algorithm will be used


     Parallelization info
     --------------------
     sticks:   dense  smooth     PW     G-vecs:    dense   smooth      PW
     Min         576     228     67                25584     6484    1029
     Max         577     230     68                25587     6487    1032
     Sum        3457    1373    405               153507    38911    6187

     Using Slab Decomposition



     bravais-lattice index     =            0
     lattice parameter (alat)  =       5.5811  a.u.
     unit-cell volume          =     173.8408 (a.u.)^3
     number of atoms/cell      =            2
     number of atomic types    =            2
     number of electrons       =        28.00
     number of Kohn-Sham states=           18
     kinetic-energy cutoff     =     140.0000  Ry
     charge density cutoff     =    1400.0000  Ry
     scf convergence threshold =      1.0E-08
     mixing beta               =       0.7000
     number of iterations used =            8  plain     mixing
     Exchange-correlation= PBE
                           (   1   4   3   4   0   0   0)

     celldm(1)=   5.581067  celldm(2)=   0.000000  celldm(3)=   0.000000
     celldm(4)=   0.000000  celldm(5)=   0.000000  celldm(6)=   0.000000

     crystal axes: (cart. coord. in units of alat)
               a(1) = (   1.000000   0.000000   0.000000 )  
               a(2) = (   0.000000   1.000000   0.000000 )  
               a(3) = (   0.000000   0.000000   1.000000 )  

     reciprocal axes: (cart. coord. in units 2 pi/alat)
               b(1) = (  1.000000  0.000000  0.000000 )  
               b(2) = (  0.000000  1.000000  0.000000 )  
               b(3) = (  0.000000  0.000000  1.000000 )  


     PseudoPot. # 1 for Fe read from file:
     /home/rafi/QE/qe-7.4.1/pseudo/Fe.pbe-spn-kjpaw_psl.0.2.1.UPF
     MD5 check sum: e86618425769142926afa95317d90200
     Pseudo is Projector augmented-wave + core cor, Zval = 16.0
     Generated using "atomic" code by A. Dal Corso  v.5.0.99 svn rev. 10869
     Shape of augmentation charge: PSQ
     Using radial grid of 1191 points,  6 beta functions with: 
                l(1) =   0
                l(2) =   0
                l(3) =   1
                l(4) =   1
                l(5) =   2
                l(6) =   2
     Q(r) pseudized with 0 coefficients 


     PseudoPot. # 2 for Ti read from file:
     /home/rafi/QE/qe-7.4.1/pseudo/ti_pbe_v1.4.uspp.F.UPF
     MD5 check sum: 88a00a6731bd790ddea75d31a80cb452
     Pseudo is Ultrasoft + core correction, Zval = 12.0
     Generated by new atomic code, or converted to UPF format
     Using radial grid of  851 points,  6 beta functions with: 
                l(1) =   0
                l(2) =   0
                l(3) =   1
                l(4) =   1
                l(5) =   2
                l(6) =   2
     Q(r) pseudized with  6 coefficients,  rinner =    1.000   1.000   1.000
                                                       1.000   1.000

     atomic species   valence    mass     pseudopotential
     Fe               16.00    55.84500     Fe( 1.00)
     Ti               12.00    47.86700     Ti( 1.00)

     48 Sym. Ops., with inversion, found



   Cartesian axes

     site n.     atom                  positions (alat units)
         1        Fe     tau(   1) = (   0.5000000   0.5000000   0.5000000  )
         2        Ti     tau(   2) = (   0.0000000   0.0000000   0.0000000  )

     number of k points=    56  Marzari-Vanderbilt smearing, width (Ry)=  0.0050
                       cart. coord. in units 2pi/alat
        k(    1) = (   0.0000000   0.0000000   0.0000000), wk =   0.0020000
        k(    2) = (   0.0000000   0.0000000   0.1000000), wk =   0.0120000
        k(    3) = (   0.0000000   0.0000000   0.2000000), wk =   0.0120000
        k(    4) = (   0.0000000   0.0000000   0.3000000), wk =   0.0120000
        k(    5) = (   0.0000000   0.0000000   0.4000000), wk =   0.0120000
        k(    6) = (   0.0000000   0.0000000  -0.5000000), wk =   0.0060000
        k(    7) = (   0.0000000   0.1000000   0.1000000), wk =   0.0240000
        k(    8) = (   0.0000000   0.1000000   0.2000000), wk =   0.0480000
        k(    9) = (   0.0000000   0.1000000   0.3000000), wk =   0.0480000
        k(   10) = (   0.0000000   0.1000000   0.4000000), wk =   0.0480000
        k(   11) = (   0.0000000   0.1000000  -0.5000000), wk =   0.0240000
        k(   12) = (   0.0000000   0.2000000   0.2000000), wk =   0.0240000
        k(   13) = (   0.0000000   0.2000000   0.3000000), wk =   0.0480000
        k(   14) = (   0.0000000   0.2000000   0.4000000), wk =   0.0480000
        k(   15) = (   0.0000000   0.2000000  -0.5000000), wk =   0.0240000
        k(   16) = (   0.0000000   0.3000000   0.3000000), wk =   0.0240000
        k(   17) = (   0.0000000   0.3000000   0.4000000), wk =   0.0480000
        k(   18) = (   0.0000000   0.3000000  -0.5000000), wk =   0.0240000
        k(   19) = (   0.0000000   0.4000000   0.4000000), wk =   0.0240000
        k(   20) = (   0.0000000   0.4000000  -0.5000000), wk =   0.0240000
        k(   21) = (   0.0000000  -0.5000000  -0.5000000), wk =   0.0060000
        k(   22) = (   0.1000000   0.1000000   0.1000000), wk =   0.0160000
        k(   23) = (   0.1000000   0.1000000   0.2000000), wk =   0.0480000
        k(   24) = (   0.1000000   0.1000000   0.3000000), wk =   0.0480000
        k(   25) = (   0.1000000   0.1000000   0.4000000), wk =   0.0480000
        k(   26) = (   0.1000000   0.1000000  -0.5000000), wk =   0.0240000
        k(   27) = (   0.1000000   0.2000000   0.2000000), wk =   0.0480000
        k(   28) = (   0.1000000   0.2000000   0.3000000), wk =   0.0960000
        k(   29) = (   0.1000000   0.2000000   0.4000000), wk =   0.0960000
        k(   30) = (   0.1000000   0.2000000  -0.5000000), wk =   0.0480000
        k(   31) = (   0.1000000   0.3000000   0.3000000), wk =   0.0480000
        k(   32) = (   0.1000000   0.3000000   0.4000000), wk =   0.0960000
        k(   33) = (   0.1000000   0.3000000  -0.5000000), wk =   0.0480000
        k(   34) = (   0.1000000   0.4000000   0.4000000), wk =   0.0480000
        k(   35) = (   0.1000000   0.4000000  -0.5000000), wk =   0.0480000
        k(   36) = (   0.1000000  -0.5000000  -0.5000000), wk =   0.0120000
        k(   37) = (   0.2000000   0.2000000   0.2000000), wk =   0.0160000
        k(   38) = (   0.2000000   0.2000000   0.3000000), wk =   0.0480000
        k(   39) = (   0.2000000   0.2000000   0.4000000), wk =   0.0480000
        k(   40) = (   0.2000000   0.2000000  -0.5000000), wk =   0.0240000
        k(   41) = (   0.2000000   0.3000000   0.3000000), wk =   0.0480000
        k(   42) = (   0.2000000   0.3000000   0.4000000), wk =   0.0960000
        k(   43) = (   0.2000000   0.3000000  -0.5000000), wk =   0.0480000
        k(   44) = (   0.2000000   0.4000000   0.4000000), wk =   0.0480000
        k(   45) = (   0.2000000   0.4000000  -0.5000000), wk =   0.0480000
        k(   46) = (   0.2000000  -0.5000000  -0.5000000), wk =   0.0120000
        k(   47) = (   0.3000000   0.3000000   0.3000000), wk =   0.0160000
        k(   48) = (   0.3000000   0.3000000   0.4000000), wk =   0.0480000
        k(   49) = (   0.3000000   0.3000000  -0.5000000), wk =   0.0240000
        k(   50) = (   0.3000000   0.4000000   0.4000000), wk =   0.0480000
        k(   51) = (   0.3000000   0.4000000  -0.5000000), wk =   0.0480000
        k(   52) = (   0.3000000  -0.5000000  -0.5000000), wk =   0.0120000
        k(   53) = (   0.4000000   0.4000000   0.4000000), wk =   0.0160000
        k(   54) = (   0.4000000   0.4000000  -0.5000000), wk =   0.0240000
        k(   55) = (   0.4000000  -0.5000000  -0.5000000), wk =   0.0120000
        k(   56) = (  -0.5000000  -0.5000000  -0.5000000), wk =   0.0020000

     Dense  grid:   153507 G-vectors     FFT dimensions: (  72,  72,  72)

     Smooth grid:    38911 G-vectors     FFT dimensions: (  45,  45,  45)

     Estimated max dynamical RAM per process >     113.14 MB

     Estimated total dynamical RAM >     678.82 MB

     Check: negative core charge=   -0.000003

     Initial potential from superposition of free atoms

     starting charge      26.9995, renormalised to      28.0000

     negative rho (up, down):  1.385E-03 0.000E+00
     Starting wfcs are   23 randomized atomic wfcs
     Checking if some PAW data can be deallocated... 

     total cpu time spent up to now is        1.8 secs

     Self-consistent Calculation

     iteration #  1     ecut=   140.00 Ry     beta= 0.70
     Davidson diagonalization with overlap
     ethr =  1.00E-02,  avg # of iterations =  2.2

     negative rho (up, down):  7.312E-05 0.000E+00

     total cpu time spent up to now is        4.9 secs

     WARNING: integrated charge=    28.00074123, expected=    28.00000000

     total energy              =    -434.60582033 Ry
     estimated scf accuracy    <      17.80895164 Ry

     iteration #  2     ecut=   140.00 Ry     beta= 0.70
     Davidson diagonalization with overlap
     ethr =  1.00E-02,  avg # of iterations =  6.1

     negative rho (up, down):  2.246E-05 0.000E+00

     total cpu time spent up to now is       10.0 secs

     WARNING: integrated charge=    28.00056545, expected=    28.00000000

     total energy              =    -448.48849016 Ry
     estimated scf accuracy    <      67.32373983 Ry

     iteration #  3     ecut=   140.00 Ry     beta= 0.70
     Davidson diagonalization with overlap
     ethr =  1.00E-02,  avg # of iterations =  3.2

     negative rho (up, down):  1.998E-04 0.000E+00

     total cpu time spent up to now is       13.7 secs

     WARNING: integrated charge=    28.00045089, expected=    28.00000000

     total energy              =    -448.62957571 Ry
     estimated scf accuracy    <      17.04037804 Ry

     iteration #  4     ecut=   140.00 Ry     beta= 0.70
     Davidson diagonalization with overlap
     ethr =  1.00E-02,  avg # of iterations =  2.1

     negative rho (up, down):  2.514E-04 0.000E+00

     total cpu time spent up to now is       16.7 secs

     WARNING: integrated charge=    28.00043604, expected=    28.00000000

     total energy              =    -449.11989302 Ry
     estimated scf accuracy    <       5.04987493 Ry

     iteration #  5     ecut=   140.00 Ry     beta= 0.70
     Davidson diagonalization with overlap
     ethr =  1.00E-02,  avg # of iterations =  1.0

     negative rho (up, down):  4.081E-04 0.000E+00

     total cpu time spent up to now is       19.2 secs

     WARNING: integrated charge=    28.00038065, expected=    28.00000000

     total energy              =    -449.02940126 Ry
     estimated scf accuracy    <       4.53849295 Ry

     iteration #  6     ecut=   140.00 Ry     beta= 0.70
     Davidson diagonalization with overlap
     ethr =  1.00E-02,  avg # of iterations =  1.0

     negative rho (up, down):  1.073E-03 0.000E+00

     total cpu time spent up to now is       21.8 secs

     WARNING: integrated charge=    28.00021629, expected=    28.00000000

     total energy              =    -448.00160198 Ry
     estimated scf accuracy    <       4.52768396 Ry

     iteration #  7     ecut=   140.00 Ry     beta= 0.70
     Davidson diagonalization with overlap
     ethr =  1.00E-02,  avg # of iterations =  2.8

     negative rho (up, down):  1.144E-03 0.000E+00

     total cpu time spent up to now is       25.4 secs

     WARNING: integrated charge=    28.00022488, expected=    28.00000000

     total energy              =    -448.73249191 Ry
     estimated scf accuracy    <       1.55187930 Ry

     iteration #  8     ecut=   140.00 Ry     beta= 0.70
     Davidson diagonalization with overlap
     ethr =  5.54E-03,  avg # of iterations =  2.0

     negative rho (up, down):  6.128E-04 0.000E+00

     total cpu time spent up to now is       28.7 secs

     WARNING: integrated charge=    28.00013228, expected=    28.00000000

     total energy              =    -448.03782948 Ry
     estimated scf accuracy    <       4.30577383 Ry

     iteration #  9     ecut=   140.00 Ry     beta= 0.70
     Davidson diagonalization with overlap
     ethr =  5.54E-03,  avg # of iterations =  2.9

     negative rho (up, down):  5.415E-04 0.000E+00

     total cpu time spent up to now is       32.2 secs

     WARNING: integrated charge=    28.00007986, expected=    28.00000000

     total energy              =    -448.75320462 Ry
     estimated scf accuracy    <       1.31833389 Ry

     iteration # 10     ecut=   140.00 Ry     beta= 0.70
     Davidson diagonalization with overlap
     ethr =  4.71E-03,  avg # of iterations =  1.0

     negative rho (up, down):  5.183E-04 0.000E+00

     total cpu time spent up to now is       40.0 secs

     WARNING: integrated charge=    28.00003211, expected=    28.00000000

     total energy              =    -448.61504053 Ry
     estimated scf accuracy    <       2.06182597 Ry

     iteration # 11     ecut=   140.00 Ry     beta= 0.70
     Davidson diagonalization with overlap
     ethr =  4.71E-03,  avg # of iterations =  1.1

     negative rho (up, down):  3.443E-04 0.000E+00

     total cpu time spent up to now is       43.2 secs

     WARNING: integrated charge=    27.99999236, expected=    28.00000000

     total energy              =    -448.66444896 Ry
     estimated scf accuracy    <       0.65567742 Ry

     iteration # 12     ecut=   140.00 Ry     beta= 0.70
     Davidson diagonalization with overlap
     ethr =  2.34E-03,  avg # of iterations =  1.1

     negative rho (up, down):  2.864E-04 0.000E+00

     total cpu time spent up to now is       46.1 secs

     WARNING: integrated charge=    28.00003777, expected=    28.00000000

     total energy              =    -448.74892644 Ry
     estimated scf accuracy    <       0.45830603 Ry

     iteration # 13     ecut=   140.00 Ry     beta= 0.70
     Davidson diagonalization with overlap
     ethr =  1.64E-03,  avg # of iterations =  1.3

     negative rho (up, down):  2.384E-04 0.000E+00

     total cpu time spent up to now is       49.0 secs

     WARNING: integrated charge=    28.00003194, expected=    28.00000000

     total energy              =    -448.80757206 Ry
     estimated scf accuracy    <       1.50404826 Ry

     iteration # 14     ecut=   140.00 Ry     beta= 0.70
     Davidson diagonalization with overlap
     ethr =  1.64E-03,  avg # of iterations =  1.0

     negative rho (up, down):  1.934E-04 0.000E+00

     total cpu time spent up to now is       51.8 secs

     WARNING: integrated charge=    28.00003380, expected=    28.00000000

     total energy              =    -448.84314549 Ry
     estimated scf accuracy    <       1.64037676 Ry

     iteration # 15     ecut=   140.00 Ry     beta= 0.70
     Davidson diagonalization with overlap
     ethr =  1.64E-03,  avg # of iterations =  1.0

     negative rho (up, down):  4.753E-04 0.000E+00

     total cpu time spent up to now is       54.6 secs

     WARNING: integrated charge=    28.00003058, expected=    28.00000000

     total energy              =    -448.67766153 Ry
     estimated scf accuracy    <       1.89803762 Ry

     iteration # 16     ecut=   140.00 Ry     beta= 0.70
     Davidson diagonalization with overlap
     ethr =  1.64E-03,  avg # of iterations =  1.2

     negative rho (up, down):  8.670E-04 0.000E+00

     total cpu time spent up to now is       57.6 secs

     WARNING: integrated charge=    28.00002622, expected=    28.00000000

     total energy              =    -448.55093897 Ry
     estimated scf accuracy    <       1.05439228 Ry

     iteration # 17     ecut=   140.00 Ry     beta= 0.70
     Davidson diagonalization with overlap
     ethr =  1.64E-03,  avg # of iterations =  2.0

     negative rho (up, down):  1.149E-03 0.000E+00

     total cpu time spent up to now is       60.7 secs

     WARNING: integrated charge=    28.00004856, expected=    28.00000000

     total energy              =    -448.57225158 Ry
     estimated scf accuracy    <       0.11307145 Ry

     iteration # 18     ecut=   140.00 Ry     beta= 0.70
     Davidson diagonalization with overlap
     ethr =  4.04E-04,  avg # of iterations =  3.3

     negative rho (up, down):  1.198E-03 0.000E+00

     total cpu time spent up to now is       63.9 secs

     WARNING: integrated charge=    28.00000585, expected=    28.00000000

     total energy              =    -448.59327932 Ry
     estimated scf accuracy    <       0.01234033 Ry

     iteration # 19     ecut=   140.00 Ry     beta= 0.70
     Davidson diagonalization with overlap
     ethr =  4.41E-05,  avg # of iterations =  5.1

     negative rho (up, down):  1.055E-03 0.000E+00

     total cpu time spent up to now is       67.8 secs

     WARNING: integrated charge=    27.99999548, expected=    28.00000000

     total energy              =    -448.58989550 Ry
     estimated scf accuracy    <       0.14607180 Ry

     iteration # 20     ecut=   140.00 Ry     beta= 0.70
     Davidson diagonalization with overlap
     ethr =  4.41E-05,  avg # of iterations =  2.0

     negative rho (up, down):  1.091E-03 0.000E+00

     total cpu time spent up to now is       71.1 secs

     total energy              =    -448.59394129 Ry
     estimated scf accuracy    <       0.07499727 Ry

     iteration # 21     ecut=   140.00 Ry     beta= 0.70
     Davidson diagonalization with overlap
     ethr =  4.41E-05,  avg # of iterations =  1.0

     negative rho (up, down):  1.059E-03 0.000E+00

     total cpu time spent up to now is       74.1 secs

     total energy              =    -448.59030429 Ry
     estimated scf accuracy    <       0.10319219 Ry

     iteration # 22     ecut=   140.00 Ry     beta= 0.70
     Davidson diagonalization with overlap
     ethr =  4.41E-05,  avg # of iterations =  1.4

     negative rho (up, down):  1.012E-03 0.000E+00

     total cpu time spent up to now is       77.1 secs

     total energy              =    -448.58680766 Ry
     estimated scf accuracy    <       0.05732163 Ry

     iteration # 23     ecut=   140.00 Ry     beta= 0.70
     Davidson diagonalization with overlap
     ethr =  4.41E-05,  avg # of iterations =  2.0

     negative rho (up, down):  9.867E-04 0.000E+00

     total cpu time spent up to now is       80.2 secs

     total energy              =    -448.58655895 Ry
     estimated scf accuracy    <       0.01648667 Ry

     iteration # 24     ecut=   140.00 Ry     beta= 0.70
     Davidson diagonalization with overlap
     ethr =  4.41E-05,  avg # of iterations =  1.6

     negative rho (up, down):  9.742E-04 0.000E+00

     total cpu time spent up to now is       83.1 secs

     WARNING: integrated charge=    27.99999582, expected=    28.00000000

     total energy              =    -448.58669220 Ry
     estimated scf accuracy    <       0.00356679 Ry

     iteration # 25     ecut=   140.00 Ry     beta= 0.70
     Davidson diagonalization with overlap
     ethr =  1.27E-05,  avg # of iterations =  2.8

     negative rho (up, down):  9.860E-04 0.000E+00

     total cpu time spent up to now is       86.3 secs

     total energy              =    -448.58690561 Ry
     estimated scf accuracy    <       0.00026523 Ry

     iteration # 26     ecut=   140.00 Ry     beta= 0.70
     Davidson diagonalization with overlap
     ethr =  9.47E-07,  avg # of iterations =  3.5

     negative rho (up, down):  9.803E-04 0.000E+00

     total cpu time spent up to now is       89.8 secs

     total energy              =    -448.58692557 Ry
     estimated scf accuracy    <       0.00012102 Ry

     iteration # 27     ecut=   140.00 Ry     beta= 0.70
     Davidson diagonalization with overlap
     ethr =  4.32E-07,  avg # of iterations =  1.8

     negative rho (up, down):  9.814E-04 0.000E+00

     total cpu time spent up to now is       92.7 secs

     total energy              =    -448.58693511 Ry
     estimated scf accuracy    <       0.00000234 Ry

     iteration # 28     ecut=   140.00 Ry     beta= 0.70
     Davidson diagonalization with overlap
     ethr =  8.36E-09,  avg # of iterations =  4.8

     negative rho (up, down):  9.822E-04 0.000E+00

     total cpu time spent up to now is       97.3 secs

     total energy              =    -448.58693749 Ry
     estimated scf accuracy    <       0.00000455 Ry

     iteration # 29     ecut=   140.00 Ry     beta= 0.70
     Davidson diagonalization with overlap
     ethr =  8.36E-09,  avg # of iterations =  1.3

     negative rho (up, down):  9.829E-04 0.000E+00

     total cpu time spent up to now is      100.3 secs

     total energy              =    -448.58693753 Ry
     estimated scf accuracy    <       0.00000052 Ry

     iteration # 30     ecut=   140.00 Ry     beta= 0.70
     Davidson diagonalization with overlap
     ethr =  1.86E-09,  avg # of iterations =  3.1

     negative rho (up, down):  9.830E-04 0.000E+00

     total cpu time spent up to now is      103.7 secs

     total energy              =    -448.58693762 Ry
     estimated scf accuracy    <       0.00000003 Ry

     iteration # 31     ecut=   140.00 Ry     beta= 0.70
     Davidson diagonalization with overlap
     ethr =  1.09E-10,  avg # of iterations =  3.9

     negative rho (up, down):  9.829E-04 0.000E+00

     total cpu time spent up to now is      107.2 secs

     total energy              =    -448.58693762 Ry
     estimated scf accuracy    <       0.00000004 Ry

     iteration # 32     ecut=   140.00 Ry     beta= 0.70
     Davidson diagonalization with overlap
     ethr =  1.09E-10,  avg # of iterations =  1.7

     negative rho (up, down):  9.830E-04 0.000E+00

     total cpu time spent up to now is      110.3 secs

     End of self-consistent calculation

          k = 0.0000 0.0000 0.0000 (  4945 PWs)   bands (ev):

   -69.5034 -39.4550 -35.5648 -35.5648 -35.5648 -15.5551 -15.5551 -15.5551
     9.8963  13.6420  13.6420  16.3740  16.3740  16.3740  18.6828  18.6828
    20.5913  20.5913

          k = 0.0000 0.0000 0.1000 (  4877 PWs)   bands (ev):

   -69.5031 -39.4525 -35.5677 -35.5643 -35.5643 -15.5885 -15.5530 -15.5530
    10.1023  13.7408  13.7463  16.3588  16.3588  16.4186  18.5586  18.7288
    20.2982  20.2982

          k = 0.0000 0.0000 0.2000 (  4869 PWs)   bands (ev):

   -69.5023 -39.4461 -35.5752 -35.5632 -35.5632 -15.6753 -15.5477 -15.5477
    10.6962  14.0065  14.0282  16.3258  16.3258  16.5415  18.2025  18.8225
    19.6447  19.6447

          k = 0.0000 0.0000 0.3000 (  4857 PWs)   bands (ev):

   -69.5013 -39.4382 -35.5845 -35.5618 -35.5618 -15.7811 -15.5412 -15.5412
    11.6040  14.2623  14.4726  16.3020  16.3020  16.7084  17.6693  18.8036
    18.9674  18.9674

          k = 0.0000 0.0000 0.4000 (  4869 PWs)   bands (ev):

   -69.5004 -39.4318 -35.5920 -35.5607 -35.5607 -15.8657 -15.5358 -15.5358
    12.6828  14.2484  14.9901  16.3021  16.3021  16.8592  17.0767  18.4744
    18.4744  18.4989

          k = 0.0000 0.0000-0.5000 (  4918 PWs)   bands (ev):

   -69.5001 -39.4293 -35.5949 -35.5602 -35.5602 -15.8977 -15.5338 -15.5338
    13.5671  13.8082  15.2931  16.3086  16.3086  16.7444  16.9216  18.2649
    18.2924  18.2924

          k = 0.0000 0.1000 0.1000 (  4881 PWs)   bands (ev):

   -69.5028 -39.4499 -35.5687 -35.5661 -35.5639 -15.5895 -15.5827 -15.5509
    10.3034  13.8321  13.8530  16.2624  16.3326  16.5277  18.5446  18.6950
    19.9882  20.0057

          k = 0.0000 0.1000 0.2000 (  4875 PWs)   bands (ev):

   -69.5019 -39.4431 -35.5758 -35.5661 -35.5628 -15.6723 -15.5795 -15.5453
    10.8815  14.0761  14.1387  16.1712  16.2706  16.6492  18.2803  18.7775
    19.3797  19.4444

          k = 0.0000 0.1000 0.3000 (  4866 PWs)   bands (ev):

   -69.5010 -39.4346 -35.5853 -35.5654 -35.5614 -15.7768 -15.5719 -15.5384
    11.7590  14.3302  14.5445  16.1307  16.2047  16.7063  17.8427  18.6005
    18.9712  18.9902

          k = 0.0000 0.1000 0.4000 (  4876 PWs)   bands (ev):

   -69.5001 -39.4277 -35.5929 -35.5648 -35.5603 -15.8603 -15.5657 -15.5328
    12.7889  14.3017  15.0116  16.1435  16.1520  16.6570  17.3937  18.1655
    18.7243  18.8342

          k = 0.0000 0.1000-0.5000 (  4862 PWs)   bands (ev):

   -69.4998 -39.4251 -35.5959 -35.5646 -35.5599 -15.8920 -15.5634 -15.5307
    13.6051  13.8885  15.2816  16.0817  16.1845  16.5980  17.1978  17.9756
    18.6670  18.6969

          k = 0.0000 0.2000 0.2000 (  4871 PWs)   bands (ev):

   -69.5011 -39.4351 -35.5788 -35.5721 -35.5617 -15.6720 -15.6542 -15.5390
    11.4066  14.2181  14.4664  15.9709  16.1546  16.6813  18.3718  18.7384
    18.8297  19.1730

          k = 0.0000 0.2000 0.3000 (  4870 PWs)   bands (ev):

   -69.5002 -39.4252 -35.5874 -35.5747 -35.5604 -15.7655 -15.6516 -15.5312
    12.1765  14.3369  14.8938  15.8431  16.0713  16.5141  18.2028  18.3288
    18.9045  19.1142

          k = 0.0000 0.2000 0.4000 (  4870 PWs)   bands (ev):

   -69.4994 -39.4172 -35.5954 -35.5756 -35.5593 -15.8462 -15.6433 -15.5249
    13.0210  14.2503  15.2809  15.8272  16.1062  16.2422  17.8949  18.0696
    19.0400  19.2392

          k = 0.0000 0.2000-0.5000 (  4868 PWs)   bands (ev):

   -69.4991 -39.4141 -35.5985 -35.5759 -35.5589 -15.8769 -15.6401 -15.5225
    13.5920  13.9713  15.4482  15.8867  16.0663  16.1786  17.8237  17.8844
    19.0681  19.3360

          k = 0.0000 0.3000 0.3000 (  4877 PWs)   bands (ev):

   -69.4992 -39.4135 -35.5915 -35.5846 -35.5591 -15.7590 -15.7415 -15.5223
    12.7157  14.2253  15.4224  15.6159  16.1095  16.1606  18.1970  18.5167
    18.7954  19.4220

          k = 0.0000 0.3000 0.4000 (  4870 PWs)   bands (ev):

   -69.4984 -39.4041 -35.5985 -35.5889 -35.5581 -15.8289 -15.7381 -15.5151
    13.1870  14.0295  15.5189  15.8179  15.8771  16.4644  18.0298  18.5359
    19.0003  19.7670

          k = 0.0000 0.3000-0.5000 (  4856 PWs)   bands (ev):

   -69.4981 -39.4004 -35.6018 -35.5899 -35.5577 -15.8583 -15.7339 -15.5123
    13.4121  13.8872  15.5588  15.6175  16.0264  16.8581  17.7728  18.5401
    19.1726  19.9626

          k = 0.0000 0.4000 0.4000 (  4855 PWs)   bands (ev):

   -69.4976 -39.3934 -35.6017 -35.5990 -35.5572 -15.8177 -15.8110 -15.5071
    13.2195  13.8323  15.3352  15.4918  16.5952  17.0338  18.2552  18.7174
    18.9357  20.1872

          k = 0.0000 0.4000-0.5000 (  4858 PWs)   bands (ev):

   -69.4973 -39.3893 -35.6045 -35.6013 -35.5568 -15.8431 -15.8089 -15.5041
    13.2118  13.7584  15.3174  15.3288  16.8790  17.7772  17.8097  18.8526
    19.0002  20.4027

          k = 0.0000-0.5000-0.5000 (  4812 PWs)   bands (ev):

   -69.4970 -39.3851 -35.6056 -35.6056 -35.5564 -15.8374 -15.8374 -15.5009
    13.1310  13.7046  15.2297  15.2297  17.4561  17.8769  18.3720  18.3720
    19.1207  20.5615

          k = 0.1000 0.1000 0.1000 (  4878 PWs)   bands (ev):

   -69.5024 -39.4471 -35.5682 -35.5682 -35.5648 -15.5897 -15.5806 -15.5806
    10.5004  13.9398  13.9398  16.2337  16.2337  16.6072  18.6076  18.6076
    19.5264  20.2728

          k = 0.1000 0.1000 0.2000 (  4862 PWs)   bands (ev):

   -69.5016 -39.4399 -35.5760 -35.5670 -35.5649 -15.6692 -15.5787 -15.5752
    11.0654  14.1897  14.2054  16.1085  16.1590  16.6628  18.3580  18.7371
    19.0706  19.6172

          k = 0.1000 0.1000 0.3000 (  4843 PWs)   bands (ev):

   -69.5006 -39.4310 -35.5858 -35.5656 -35.5646 -15.7726 -15.5698 -15.5684
    11.9172  14.4500  14.5677  16.0581  16.0586  16.5948  17.9926  18.5965
    18.9558  19.0404

          k = 0.1000 0.1000 0.4000 (  4879 PWs)   bands (ev):

   -69.4998 -39.4238 -35.5937 -35.5645 -35.5644 -15.8552 -15.5630 -15.5625
    12.9054  14.3919  14.9927  15.9306  16.1348  16.4784  17.6248  18.2653
    18.4931  19.2210

          k = 0.1000 0.1000-0.5000 (  4880 PWs)   bands (ev):

   -69.4995 -39.4210 -35.5967 -35.5644 -35.5640 -15.8866 -15.5609 -15.5597
    13.6681  13.9864  15.2381  15.8245  16.2558  16.4013  17.4589  18.0434
    18.3285  19.3416

          k = 0.1000 0.2000 0.2000 (  4862 PWs)   bands (ev):

   -69.5008 -39.4317 -35.5784 -35.5728 -35.5650 -15.6681 -15.6521 -15.5701
    11.5855  14.3446  14.5177  15.9253  16.0302  16.5333  18.4537  18.7137
    18.8720  19.3379

          k = 0.1000 0.2000 0.3000 (  4864 PWs)   bands (ev):

   -69.4999 -39.4216 -35.5874 -35.5747 -35.5643 -15.7616 -15.6487 -15.5618
    12.3440  14.4836  14.8962  15.7890  15.9369  16.2851  18.3201  18.5073
    18.8914  19.2366

          k = 0.1000 0.2000 0.4000 (  4873 PWs)   bands (ev):

   -69.4991 -39.4134 -35.5957 -35.5753 -35.5635 -15.8419 -15.6405 -15.5549
    13.1665  14.3951  15.1901  15.7104  15.9975  16.1531  18.0824  18.1554
    18.7006  19.6906

          k = 0.1000 0.2000-0.5000 (  4868 PWs)   bands (ev):

   -69.4988 -39.4102 -35.5990 -35.5755 -35.5632 -15.8724 -15.6373 -15.5523
    13.7137  14.1086  15.3189  15.6675  16.0162  16.2400  17.8833  18.0451
    18.5609  20.0525

          k = 0.1000 0.3000 0.3000 (  4865 PWs)   bands (ev):

   -69.4989 -39.4099 -35.5909 -35.5849 -35.5632 -15.7548 -15.7392 -15.5527
    12.8921  14.3727  15.4155  15.5730  15.9232  15.9712  18.3004  18.6683
    18.7534  19.6382

          k = 0.1000 0.3000 0.4000 (  4850 PWs)   bands (ev):

   -69.4981 -39.4005 -35.5983 -35.5886 -35.5623 -15.8254 -15.7354 -15.5453
    13.3559  14.1765  15.4682  15.6246  15.8898  16.3043  18.0662  18.6106
    18.8047  20.1679

          k = 0.1000 0.3000-0.5000 (  4868 PWs)   bands (ev):

   -69.4978 -39.3968 -35.6018 -35.5894 -35.5619 -15.8548 -15.7314 -15.5425
    13.5658  14.0395  15.4855  15.5011  15.9851  16.7158  17.7936  18.6693
    18.6943  20.3469

          k = 0.1000 0.4000 0.4000 (  4856 PWs)   bands (ev):

   -69.4973 -39.3900 -35.6011 -35.5988 -35.5613 -15.8147 -15.8088 -15.5374
    13.3864  13.9818  15.3035  15.4293  16.5219  16.8190  18.1418  18.4829
    19.0386  20.4581

          k = 0.1000 0.4000-0.5000 (  4862 PWs)   bands (ev):

   -69.4970 -39.3860 -35.6041 -35.6007 -35.5609 -15.8406 -15.8066 -15.5344
    13.3736  13.9103  15.2836  15.2911  16.7789  17.4798  17.7695  18.4452
    19.1071  20.5617

          k = 0.1000-0.5000-0.5000 (  4820 PWs)   bands (ev):

   -69.4967 -39.3818 -35.6050 -35.6050 -35.5605 -15.8351 -15.8351 -15.5314
    13.2943  13.8557  15.2043  15.2043  17.4597  17.8728  17.8728  17.8781
    19.2231  21.2016

          k = 0.2000 0.2000 0.2000 (  4857 PWs)   bands (ev):

   -69.5001 -39.4230 -35.5771 -35.5771 -35.5710 -15.6622 -15.6464 -15.6464
    12.0871  14.6596  14.6596  15.8072  15.8072  16.1479  18.6384  18.6384
    19.1229  19.5864

          k = 0.2000 0.2000 0.3000 (  4870 PWs)   bands (ev):

   -69.4991 -39.4122 -35.5876 -35.5755 -35.5733 -15.7515 -15.6430 -15.6394
    12.7994  14.8575  14.8983  15.6575  15.6814  15.8470  18.5191  18.6359
    18.9857  19.5781

          k = 0.2000 0.2000 0.4000 (  4865 PWs)   bands (ev):

   -69.4983 -39.4034 -35.5967 -35.5745 -35.5743 -15.8305 -15.6337 -15.6324
    13.5237  14.6727  15.0562  15.5142  15.7719  15.9854  18.2304  18.3851
    18.6039  20.1265

          k = 0.2000 0.2000-0.5000 (  4860 PWs)   bands (ev):

   -69.4980 -39.4000 -35.6002 -35.5749 -35.5738 -15.8605 -15.6315 -15.6284
    13.9599  14.3685  15.1621  15.4337  15.8477  16.2090  17.8984  18.3135
    18.4879  20.2331

          k = 0.2000 0.3000 0.3000 (  4879 PWs)   bands (ev):

   -69.4981 -39.4005 -35.5896 -35.5856 -35.5738 -15.7439 -15.7334 -15.6316
    13.3808  14.7603  15.3844  15.4702  15.5047  15.6133  18.4099  18.5958
    19.0866  19.8371

          k = 0.2000 0.3000 0.4000 (  4858 PWs)   bands (ev):

   -69.4973 -39.3910 -35.5980 -35.5878 -35.5732 -15.8164 -15.7284 -15.6238
    13.8209  14.5385  15.3210  15.3721  15.7125  15.9963  18.1093  18.3669
    19.0669  20.1661

          k = 0.2000 0.3000-0.5000 (  4862 PWs)   bands (ev):

   -69.4970 -39.3874 -35.6017 -35.5881 -35.5729 -15.8458 -15.7247 -15.6207
    13.9804  14.4061  15.2806  15.3408  15.8095  16.3872  17.7960  18.2746
    19.0391  20.3353

          k = 0.2000 0.4000 0.4000 (  4863 PWs)   bands (ev):

   -69.4965 -39.3810 -35.5996 -35.5980 -35.5722 -15.8068 -15.8029 -15.6162
    13.8579  14.3625  15.2295  15.3021  16.2866  16.2870  18.0426  18.0898
    19.3665  20.4212

          k = 0.2000 0.4000-0.5000 (  4862 PWs)   bands (ev):

   -69.4962 -39.3771 -35.6030 -35.5992 -35.5718 -15.8338 -15.8005 -15.6134
    13.8299  14.3007  15.2087  15.2113  16.4323  16.8255  17.7057  18.0524
    19.4314  20.6163

          k = 0.2000-0.5000-0.5000 (  4848 PWs)   bands (ev):

   -69.4959 -39.3732 -35.6035 -35.6035 -35.5713 -15.8293 -15.8293 -15.6105
    13.7582  14.2503  15.1477  15.1477  17.0411  17.0411  17.4693  17.8642
    19.5367  20.8598

          k = 0.3000 0.3000 0.3000 (  4872 PWs)   bands (ev):

   -69.4971 -39.3888 -35.5878 -35.5878 -35.5853 -15.7322 -15.7261 -15.7261
    14.0209  15.0231  15.3071  15.3071  15.3717  15.3717  18.3474  18.3474
    19.6328  19.6328

          k = 0.3000 0.3000 0.4000 (  4850 PWs)   bands (ev):

   -69.4963 -39.3793 -35.5977 -35.5867 -35.5865 -15.8053 -15.7203 -15.7191
    14.3859  14.7792  15.2266  15.2992  15.4472  15.8081  18.0157  18.1514
    19.5679  20.1762

          k = 0.3000 0.3000-0.5000 (  4862 PWs)   bands (ev):

   -69.4960 -39.3757 -35.6017 -35.5870 -35.5859 -15.8346 -15.7180 -15.7149
    14.4118  14.6922  15.1977  15.2667  15.6104  16.1394  17.7212  18.0832
    19.5542  20.4131

          k = 0.3000 0.4000 0.4000 (  4852 PWs)   bands (ev):

   -69.4956 -39.3698 -35.5978 -35.5972 -35.5856 -15.7972 -15.7956 -15.7125
    14.5146  14.7671  15.1643  15.2812  15.7228  15.9247  17.8391  17.9420
    19.8937  20.4442

          k = 0.3000 0.4000-0.5000 (  4832 PWs)   bands (ev):

   -69.4953 -39.3662 -35.6016 -35.5974 -35.5851 -15.8255 -15.7930 -15.7098
    14.4687  14.7342  15.1703  15.1815  15.9286  16.2069  17.6174  17.8865
    19.9502  20.6691

          k = 0.3000-0.5000-0.5000 (  4824 PWs)   bands (ev):

   -69.4950 -39.3625 -35.6016 -35.6016 -35.5846 -15.8220 -15.8220 -15.7072
    14.4343  14.7299  15.1093  15.1093  16.3005  16.3005  17.4811  17.7883
    20.0513  20.8846

          k = 0.4000 0.4000 0.4000 (  4833 PWs)   bands (ev):

   -69.4948 -39.3608 -35.5965 -35.5963 -35.5963 -15.7897 -15.7897 -15.7891
    14.8162  15.1655  15.1655  15.3667  15.5661  15.5661  17.7313  17.7313
    20.4749  20.4749

          k = 0.4000 0.4000-0.5000 (  4826 PWs)   bands (ev):

   -69.4945 -39.3573 -35.6005 -35.5962 -35.5957 -15.8187 -15.7875 -15.7863
    14.9312  14.9704  15.2368  15.3589  15.5414  15.8175  17.5631  17.7031
    20.4877  20.7519

          k = 0.4000-0.5000-0.5000 (  4804 PWs)   bands (ev):

   -69.4942 -39.3539 -35.6001 -35.6001 -35.5954 -15.8161 -15.8161 -15.7846
    15.1039  15.1318  15.1461  15.1461  15.7471  15.7471  17.4907  17.6196
    20.6309  20.9048

          k =-0.5000-0.5000-0.5000 (  4776 PWs)   bands (ev):

   -69.4939 -39.3506 -35.5995 -35.5995 -35.5995 -15.8139 -15.8139 -15.8139
    15.2420  15.2420  15.2420  15.4710  15.4710  15.4710  17.4944  17.4944
    20.9125  25.7732

     the Fermi energy is    17.4437 ev

!    total energy              =    -448.58693762 Ry
     estimated scf accuracy    <          1.7E-09 Ry
     smearing contrib. (-TS)   =      -0.00007643 Ry
     internal energy E=F+TS    =    -448.58686120 Ry

     The total energy is F=E-TS. E is the sum of the following terms:
     one-electron contribution =    -153.35465330 Ry
     hartree contribution      =      92.31438375 Ry
     xc contribution           =     -52.86518844 Ry
     ewald contribution        =    -258.52806246 Ry
     one-center paw contrib.   =     -76.15334075 Ry

     convergence has been achieved in  32 iterations

     negative rho (up, down):  9.830E-04 0.000E+00

     Forces acting on atoms (cartesian axes, Ry/au):

     atom    1 type  1   force =     0.00000000    0.00000000    0.00000000
     atom    2 type  2   force =     0.00000000    0.00000000    0.00000000

     Total force =     0.000000     Total SCF correction =     0.000000


     Computing stress (Cartesian axis) and pressure


     negative rho (up, down):  9.830E-04 0.000E+00
          total   stress  (Ry/bohr**3)                   (kbar)     P=       -0.60
  -0.00000406   0.00000000   0.00000000           -0.60        0.00        0.00
   0.00000000  -0.00000406   0.00000000            0.00       -0.60        0.00
   0.00000000   0.00000000  -0.00000406            0.00        0.00       -0.60


     Writing all to output data dir ./out/TiFe1.save/ :
     XML data file, charge density, pseudopotentials, collected wavefunctions

     init_run     :      1.41s CPU      1.58s WALL (       1 calls)
     electrons    :     97.70s CPU    108.51s WALL (       1 calls)
     forces       :      0.55s CPU      0.62s WALL (       1 calls)
     stress       :      2.52s CPU      2.73s WALL (       1 calls)

     Called by init_run:
     wfcinit      :      0.93s CPU      0.99s WALL (       1 calls)
     potinit      :      0.13s CPU      0.15s WALL (       1 calls)
     hinit0       :      0.16s CPU      0.17s WALL (       1 calls)

     Called by electrons:
     c_bands      :     72.52s CPU     77.73s WALL (      32 calls)
     sum_band     :     15.40s CPU     18.27s WALL (      32 calls)
     v_of_rho     :      1.71s CPU      1.91s WALL (      33 calls)
     newd         :      5.17s CPU      7.43s WALL (      33 calls)
     PAW_pot      :      2.62s CPU      2.91s WALL (      33 calls)
     mix_rho      :      0.31s CPU      0.33s WALL (      32 calls)

     Called by c_bands:
     init_us_2    :      1.57s CPU      1.62s WALL (    3752 calls)
     cegterg      :     69.20s CPU     74.26s WALL (    1792 calls)

     Called by *egterg:
     cdiaghg      :      1.93s CPU      2.03s WALL (    5849 calls)
     h_psi        :     52.47s CPU     56.96s WALL (    5905 calls)
     s_psi        :      2.63s CPU      2.70s WALL (    5905 calls)
     g_psi        :      0.12s CPU      0.12s WALL (    4057 calls)

     Called by h_psi:
     h_psi:calbec :      4.70s CPU      5.11s WALL (    5905 calls)
     vloc_psi     :     44.67s CPU     48.67s WALL (    5905 calls)
     add_vuspsi   :      2.67s CPU      2.72s WALL (    5905 calls)

     General routines
     calbec       :      7.00s CPU      7.51s WALL (    8649 calls)
     fft          :      0.89s CPU      1.06s WALL (     452 calls)
     ffts         :      0.03s CPU      0.03s WALL (      65 calls)
     fftw         :     38.52s CPU     42.16s WALL (  183204 calls)
     interpolate  :      0.10s CPU      0.12s WALL (      33 calls)

     Parallel routines

     PWSCF        :   1m42.43s CPU   1m53.77s WALL


   This run was terminated on:  21:30:29  31Oct2025            

=------------------------------------------------------------------------------=
   JOB DONE.
=------------------------------------------------------------------------------=
