
     Program PWSCF v.7.4.1 starts on 31Oct2025 at 22: 8:53 

     This program is part of the open-source Quantum ESPRESSO suite
     for quantum simulation of materials; please cite
         "P. Giannozzi et al., J. Phys.:Condens. Matter 21 395502 (2009);
         "P. Giannozzi et al., J. Phys.:Condens. Matter 29 465901 (2017);
         "P. Giannozzi et al., J. Chem. Phys. 152 154105 (2020);
          URL http://www.quantum-espresso.org", 
     in publications or presentations arising from this work. More details at
     http://www.quantum-espresso.org/quote

     Parallel version (MPI), running on     6 processors

     MPI processes distributed on     1 nodes
     443 MiB available memory on the printing compute node when the environment starts

     Reading input from TiFe20.in

     Current dimensions of program PWSCF are:
     Max number of different atomic species (ntypx) = 10
     Max number of k-points (npk) =  40000
     Max angular momentum in pseudopotentials (lmaxx) =  4
     file Fe.pbe-spn-kjpaw_psl.0.2.1.UPF: wavefunction(s)  3D renormalized

     IMPORTANT: XC functional enforced from input :
     Exchange-correlation= PBE
                           (   1   4   3   4   0   0   0)
     Any further DFT definition will be discarded
     Please, verify this is what you really want

     Message from routine setup:
     using ibrav=0 with symmetry is DISCOURAGED, use correct ibrav instead

     R & G space division:  proc/nbgrp/npool/nimage =       6
     Subspace diagonalization in iterative solution of the eigenvalue problem:
     a serial algorithm will be used


     Parallelization info
     --------------------
     sticks:   dense  smooth     PW     G-vecs:    dense   smooth      PW
     Min         464     184     55                18412     4668     757
     Max         465     185     56                18415     4671     760
     Sum        2785    1109    333               110483    28017    4553

     Using Slab Decomposition



     bravais-lattice index     =            0
     lattice parameter (alat)  =       4.9980  a.u.
     unit-cell volume          =     124.8478 (a.u.)^3
     number of atoms/cell      =            2
     number of atomic types    =            2
     number of electrons       =        28.00
     number of Kohn-Sham states=           18
     kinetic-energy cutoff     =     140.0000  Ry
     charge density cutoff     =    1400.0000  Ry
     scf convergence threshold =      1.0E-08
     mixing beta               =       0.7000
     number of iterations used =            8  plain     mixing
     Exchange-correlation= PBE
                           (   1   4   3   4   0   0   0)

     celldm(1)=   4.997970  celldm(2)=   0.000000  celldm(3)=   0.000000
     celldm(4)=   0.000000  celldm(5)=   0.000000  celldm(6)=   0.000000

     crystal axes: (cart. coord. in units of alat)
               a(1) = (   1.000000   0.000000   0.000000 )  
               a(2) = (   0.000000   1.000000   0.000000 )  
               a(3) = (   0.000000   0.000000   1.000000 )  

     reciprocal axes: (cart. coord. in units 2 pi/alat)
               b(1) = (  1.000000  0.000000  0.000000 )  
               b(2) = (  0.000000  1.000000  0.000000 )  
               b(3) = (  0.000000  0.000000  1.000000 )  


     PseudoPot. # 1 for Fe read from file:
     /home/rafi/QE/qe-7.4.1/pseudo/Fe.pbe-spn-kjpaw_psl.0.2.1.UPF
     MD5 check sum: e86618425769142926afa95317d90200
     Pseudo is Projector augmented-wave + core cor, Zval = 16.0
     Generated using "atomic" code by A. Dal Corso  v.5.0.99 svn rev. 10869
     Shape of augmentation charge: PSQ
     Using radial grid of 1191 points,  6 beta functions with: 
                l(1) =   0
                l(2) =   0
                l(3) =   1
                l(4) =   1
                l(5) =   2
                l(6) =   2
     Q(r) pseudized with 0 coefficients 


     PseudoPot. # 2 for Ti read from file:
     /home/rafi/QE/qe-7.4.1/pseudo/ti_pbe_v1.4.uspp.F.UPF
     MD5 check sum: 88a00a6731bd790ddea75d31a80cb452
     Pseudo is Ultrasoft + core correction, Zval = 12.0
     Generated by new atomic code, or converted to UPF format
     Using radial grid of  851 points,  6 beta functions with: 
                l(1) =   0
                l(2) =   0
                l(3) =   1
                l(4) =   1
                l(5) =   2
                l(6) =   2
     Q(r) pseudized with  6 coefficients,  rinner =    1.000   1.000   1.000
                                                       1.000   1.000

     atomic species   valence    mass     pseudopotential
     Fe               16.00    55.84500     Fe( 1.00)
     Ti               12.00    47.86700     Ti( 1.00)

     48 Sym. Ops., with inversion, found



   Cartesian axes

     site n.     atom                  positions (alat units)
         1        Fe     tau(   1) = (   0.5000000   0.5000000   0.5000000  )
         2        Ti     tau(   2) = (   0.0000000   0.0000000   0.0000000  )

     number of k points=    56  Marzari-Vanderbilt smearing, width (Ry)=  0.0050
                       cart. coord. in units 2pi/alat
        k(    1) = (   0.0000000   0.0000000   0.0000000), wk =   0.0020000
        k(    2) = (   0.0000000   0.0000000   0.1000000), wk =   0.0120000
        k(    3) = (   0.0000000   0.0000000   0.2000000), wk =   0.0120000
        k(    4) = (   0.0000000   0.0000000   0.3000000), wk =   0.0120000
        k(    5) = (   0.0000000   0.0000000   0.4000000), wk =   0.0120000
        k(    6) = (   0.0000000   0.0000000  -0.5000000), wk =   0.0060000
        k(    7) = (   0.0000000   0.1000000   0.1000000), wk =   0.0240000
        k(    8) = (   0.0000000   0.1000000   0.2000000), wk =   0.0480000
        k(    9) = (   0.0000000   0.1000000   0.3000000), wk =   0.0480000
        k(   10) = (   0.0000000   0.1000000   0.4000000), wk =   0.0480000
        k(   11) = (   0.0000000   0.1000000  -0.5000000), wk =   0.0240000
        k(   12) = (   0.0000000   0.2000000   0.2000000), wk =   0.0240000
        k(   13) = (   0.0000000   0.2000000   0.3000000), wk =   0.0480000
        k(   14) = (   0.0000000   0.2000000   0.4000000), wk =   0.0480000
        k(   15) = (   0.0000000   0.2000000  -0.5000000), wk =   0.0240000
        k(   16) = (   0.0000000   0.3000000   0.3000000), wk =   0.0240000
        k(   17) = (   0.0000000   0.3000000   0.4000000), wk =   0.0480000
        k(   18) = (   0.0000000   0.3000000  -0.5000000), wk =   0.0240000
        k(   19) = (   0.0000000   0.4000000   0.4000000), wk =   0.0240000
        k(   20) = (   0.0000000   0.4000000  -0.5000000), wk =   0.0240000
        k(   21) = (   0.0000000  -0.5000000  -0.5000000), wk =   0.0060000
        k(   22) = (   0.1000000   0.1000000   0.1000000), wk =   0.0160000
        k(   23) = (   0.1000000   0.1000000   0.2000000), wk =   0.0480000
        k(   24) = (   0.1000000   0.1000000   0.3000000), wk =   0.0480000
        k(   25) = (   0.1000000   0.1000000   0.4000000), wk =   0.0480000
        k(   26) = (   0.1000000   0.1000000  -0.5000000), wk =   0.0240000
        k(   27) = (   0.1000000   0.2000000   0.2000000), wk =   0.0480000
        k(   28) = (   0.1000000   0.2000000   0.3000000), wk =   0.0960000
        k(   29) = (   0.1000000   0.2000000   0.4000000), wk =   0.0960000
        k(   30) = (   0.1000000   0.2000000  -0.5000000), wk =   0.0480000
        k(   31) = (   0.1000000   0.3000000   0.3000000), wk =   0.0480000
        k(   32) = (   0.1000000   0.3000000   0.4000000), wk =   0.0960000
        k(   33) = (   0.1000000   0.3000000  -0.5000000), wk =   0.0480000
        k(   34) = (   0.1000000   0.4000000   0.4000000), wk =   0.0480000
        k(   35) = (   0.1000000   0.4000000  -0.5000000), wk =   0.0480000
        k(   36) = (   0.1000000  -0.5000000  -0.5000000), wk =   0.0120000
        k(   37) = (   0.2000000   0.2000000   0.2000000), wk =   0.0160000
        k(   38) = (   0.2000000   0.2000000   0.3000000), wk =   0.0480000
        k(   39) = (   0.2000000   0.2000000   0.4000000), wk =   0.0480000
        k(   40) = (   0.2000000   0.2000000  -0.5000000), wk =   0.0240000
        k(   41) = (   0.2000000   0.3000000   0.3000000), wk =   0.0480000
        k(   42) = (   0.2000000   0.3000000   0.4000000), wk =   0.0960000
        k(   43) = (   0.2000000   0.3000000  -0.5000000), wk =   0.0480000
        k(   44) = (   0.2000000   0.4000000   0.4000000), wk =   0.0480000
        k(   45) = (   0.2000000   0.4000000  -0.5000000), wk =   0.0480000
        k(   46) = (   0.2000000  -0.5000000  -0.5000000), wk =   0.0120000
        k(   47) = (   0.3000000   0.3000000   0.3000000), wk =   0.0160000
        k(   48) = (   0.3000000   0.3000000   0.4000000), wk =   0.0480000
        k(   49) = (   0.3000000   0.3000000  -0.5000000), wk =   0.0240000
        k(   50) = (   0.3000000   0.4000000   0.4000000), wk =   0.0480000
        k(   51) = (   0.3000000   0.4000000  -0.5000000), wk =   0.0480000
        k(   52) = (   0.3000000  -0.5000000  -0.5000000), wk =   0.0120000
        k(   53) = (   0.4000000   0.4000000   0.4000000), wk =   0.0160000
        k(   54) = (   0.4000000   0.4000000  -0.5000000), wk =   0.0240000
        k(   55) = (   0.4000000  -0.5000000  -0.5000000), wk =   0.0120000
        k(   56) = (  -0.5000000  -0.5000000  -0.5000000), wk =   0.0020000

     Dense  grid:   110483 G-vectors     FFT dimensions: (  60,  60,  60)

     Smooth grid:    28017 G-vectors     FFT dimensions: (  40,  40,  40)

     Estimated max dynamical RAM per process >      82.49 MB

     Estimated total dynamical RAM >     494.96 MB

     Check: negative core charge=   -0.000004

     Initial potential from superposition of free atoms

     starting charge      26.9995, renormalised to      28.0000

     negative rho (up, down):  1.340E-03 0.000E+00
     Starting wfcs are   23 randomized atomic wfcs
     Checking if some PAW data can be deallocated... 

     total cpu time spent up to now is        1.7 secs

     Self-consistent Calculation

     iteration #  1     ecut=   140.00 Ry     beta= 0.70
     Davidson diagonalization with overlap
     ethr =  1.00E-02,  avg # of iterations =  2.1

     negative rho (up, down):  6.701E-05 0.000E+00

     total cpu time spent up to now is        4.9 secs

     total energy              =    -439.88562026 Ry
     estimated scf accuracy    <      11.15979315 Ry

     iteration #  2     ecut=   140.00 Ry     beta= 0.70
     Davidson diagonalization with overlap
     ethr =  1.00E-02,  avg # of iterations =  5.1

     negative rho (up, down):  1.386E-04 0.000E+00

     total cpu time spent up to now is        9.2 secs

     total energy              =    -447.59894132 Ry
     estimated scf accuracy    <      46.98168822 Ry

     iteration #  3     ecut=   140.00 Ry     beta= 0.70
     Davidson diagonalization with overlap
     ethr =  1.00E-02,  avg # of iterations =  2.7

     negative rho (up, down):  3.134E-04 0.000E+00

     total cpu time spent up to now is       12.8 secs

     total energy              =    -448.31797732 Ry
     estimated scf accuracy    <      10.36708127 Ry

     iteration #  4     ecut=   140.00 Ry     beta= 0.70
     Davidson diagonalization with overlap
     ethr =  1.00E-02,  avg # of iterations =  2.1

     negative rho (up, down):  2.366E-04 0.000E+00

     total cpu time spent up to now is       15.7 secs

     total energy              =    -448.72719433 Ry
     estimated scf accuracy    <       2.62893360 Ry

     iteration #  5     ecut=   140.00 Ry     beta= 0.70
     Davidson diagonalization with overlap
     ethr =  9.39E-03,  avg # of iterations =  1.0

     negative rho (up, down):  6.982E-04 0.000E+00

     total cpu time spent up to now is       18.1 secs

     total energy              =    -448.20838059 Ry
     estimated scf accuracy    <       2.33743465 Ry

     iteration #  6     ecut=   140.00 Ry     beta= 0.70
     Davidson diagonalization with overlap
     ethr =  8.35E-03,  avg # of iterations =  2.0

     negative rho (up, down):  7.465E-04 0.000E+00

     total cpu time spent up to now is       25.4 secs

     total energy              =    -448.42256277 Ry
     estimated scf accuracy    <       0.08400742 Ry

     iteration #  7     ecut=   140.00 Ry     beta= 0.70
     Davidson diagonalization with overlap
     ethr =  3.00E-04,  avg # of iterations =  4.5

     negative rho (up, down):  8.962E-04 0.000E+00

     total cpu time spent up to now is       31.7 secs

     total energy              =    -448.42325881 Ry
     estimated scf accuracy    <       0.05072170 Ry

     iteration #  8     ecut=   140.00 Ry     beta= 0.70
     Davidson diagonalization with overlap
     ethr =  1.81E-04,  avg # of iterations =  2.2

     negative rho (up, down):  9.458E-04 0.000E+00

     total cpu time spent up to now is       38.3 secs

     total energy              =    -448.42860749 Ry
     estimated scf accuracy    <       0.00459855 Ry

     iteration #  9     ecut=   140.00 Ry     beta= 0.70
     Davidson diagonalization with overlap
     ethr =  1.64E-05,  avg # of iterations =  5.5

     negative rho (up, down):  8.885E-04 0.000E+00

     total cpu time spent up to now is       42.5 secs

     total energy              =    -448.42183162 Ry
     estimated scf accuracy    <       0.08531953 Ry

     iteration # 10     ecut=   140.00 Ry     beta= 0.70
     Davidson diagonalization with overlap
     ethr =  1.64E-05,  avg # of iterations =  3.9

     negative rho (up, down):  8.983E-04 0.000E+00

     total cpu time spent up to now is       45.8 secs

     total energy              =    -448.42883799 Ry
     estimated scf accuracy    <       0.00553164 Ry

     iteration # 11     ecut=   140.00 Ry     beta= 0.70
     Davidson diagonalization with overlap
     ethr =  1.64E-05,  avg # of iterations =  1.4

     negative rho (up, down):  9.047E-04 0.000E+00

     total cpu time spent up to now is       48.6 secs

     total energy              =    -448.42887798 Ry
     estimated scf accuracy    <       0.00102924 Ry

     iteration # 12     ecut=   140.00 Ry     beta= 0.70
     Davidson diagonalization with overlap
     ethr =  3.68E-06,  avg # of iterations =  2.4

     negative rho (up, down):  9.099E-04 0.000E+00

     total cpu time spent up to now is       51.8 secs

     total energy              =    -448.42862070 Ry
     estimated scf accuracy    <       0.00669670 Ry

     iteration # 13     ecut=   140.00 Ry     beta= 0.70
     Davidson diagonalization with overlap
     ethr =  3.68E-06,  avg # of iterations =  1.8

     negative rho (up, down):  9.167E-04 0.000E+00

     total cpu time spent up to now is       55.4 secs

     total energy              =    -448.42849643 Ry
     estimated scf accuracy    <       0.00129784 Ry

     iteration # 14     ecut=   140.00 Ry     beta= 0.70
     Davidson diagonalization with overlap
     ethr =  3.68E-06,  avg # of iterations =  3.0

     negative rho (up, down):  9.097E-04 0.000E+00

     total cpu time spent up to now is       58.5 secs

     total energy              =    -448.42865188 Ry
     estimated scf accuracy    <       0.00021765 Ry

     iteration # 15     ecut=   140.00 Ry     beta= 0.70
     Davidson diagonalization with overlap
     ethr =  7.77E-07,  avg # of iterations =  2.8

     negative rho (up, down):  9.095E-04 0.000E+00

     total cpu time spent up to now is       61.4 secs

     total energy              =    -448.42868648 Ry
     estimated scf accuracy    <       0.00007133 Ry

     iteration # 16     ecut=   140.00 Ry     beta= 0.70
     Davidson diagonalization with overlap
     ethr =  2.55E-07,  avg # of iterations =  2.0

     negative rho (up, down):  9.089E-04 0.000E+00

     total cpu time spent up to now is       64.3 secs

     total energy              =    -448.42869394 Ry
     estimated scf accuracy    <       0.00000034 Ry

     iteration # 17     ecut=   140.00 Ry     beta= 0.70
     Davidson diagonalization with overlap
     ethr =  1.22E-09,  avg # of iterations =  6.9

     negative rho (up, down):  9.096E-04 0.000E+00

     total cpu time spent up to now is       68.7 secs

     total energy              =    -448.42869529 Ry
     estimated scf accuracy    <       0.00000070 Ry

     iteration # 18     ecut=   140.00 Ry     beta= 0.70
     Davidson diagonalization with overlap
     ethr =  1.22E-09,  avg # of iterations =  3.4

     negative rho (up, down):  9.096E-04 0.000E+00

     total cpu time spent up to now is       71.9 secs

     total energy              =    -448.42869538 Ry
     estimated scf accuracy    <       0.00000006 Ry

     iteration # 19     ecut=   140.00 Ry     beta= 0.70
     Davidson diagonalization with overlap
     ethr =  2.22E-10,  avg # of iterations =  4.7

     negative rho (up, down):  9.095E-04 0.000E+00

     total cpu time spent up to now is       74.9 secs

     total energy              =    -448.42869537 Ry
     estimated scf accuracy    <       0.00000016 Ry

     iteration # 20     ecut=   140.00 Ry     beta= 0.70
     Davidson diagonalization with overlap
     ethr =  2.22E-10,  avg # of iterations =  3.3

     negative rho (up, down):  9.095E-04 0.000E+00

     total cpu time spent up to now is       77.5 secs

     End of self-consistent calculation

          k = 0.0000 0.0000 0.0000 (  3431 PWs)   bands (ev):

   -62.0239 -31.1425 -28.1003 -28.1003 -28.1003  -7.0276  -7.0276  -7.0276
    16.9521  19.2457  19.2457  23.6135  23.6135  23.6135  27.0002  27.0002
    29.9563  29.9563

          k = 0.0000 0.0000 0.1000 (  3483 PWs)   bands (ev):

   -62.0222 -31.1415 -28.1016 -28.0984 -28.0984  -7.1315  -7.0239  -7.0239
    17.2373  19.3868  19.4614  23.5956  23.5956  23.6828  26.7800  27.0904
    29.4907  29.4907

          k = 0.0000 0.0000 0.2000 (  3519 PWs)   bands (ev):

   -62.0180 -31.1394 -28.1040 -28.0932 -28.0932  -7.3977  -7.0144  -7.0144
    18.0340  19.8000  20.0344  23.5638  23.5638  23.8750  26.1583  27.3158
    28.4636  28.4636

          k = 0.0000 0.0000 0.3000 (  3495 PWs)   bands (ev):

   -62.0127 -31.1378 -28.1052 -28.0868 -28.0868  -7.7163  -7.0026  -7.0026
    19.1777  20.4486  20.7456  23.5634  23.5634  24.1395  25.2500  27.3965
    27.3965  27.5012

          k = 0.0000 0.0000 0.4000 (  3495 PWs)   bands (ev):

   -62.0084 -31.1374 -28.1048 -28.0816 -28.0816  -7.9663  -6.9931  -6.9931
    20.3822  21.2277  21.2636  23.6112  23.6112  24.2598  24.3832  26.6027
    26.6027  27.3657

          k = 0.0000 0.0000-0.5000 (  3514 PWs)   bands (ev):

   -62.0068 -31.1375 -28.1043 -28.0796 -28.0796  -8.0602  -6.9894  -6.9894
    21.1185  21.2788  21.7097  23.6474  23.6474  23.6971  24.4857  26.3017
    26.3017  27.1480

          k = 0.0000 0.1000 0.1000 (  3509 PWs)   bands (ev):

   -62.0206 -31.1384 -28.1151 -28.0964 -28.0871  -7.1428  -7.1088  -7.0196
    17.5099  19.5520  19.6433  23.4265  23.5626  23.8791  26.7600  27.0316
    28.9811  29.0382

          k = 0.0000 0.1000 0.2000 (  3500 PWs)   bands (ev):

   -62.0164 -31.1308 -28.1268 -28.0914 -28.0803  -7.3896  -7.1083  -7.0084
    18.2653  19.9427  20.2056  23.2821  23.4946  24.0940  26.2984  27.2321
    28.0704  28.1125

          k = 0.0000 0.1000 0.3000 (  3504 PWs)   bands (ev):

   -62.0111 -31.1224 -28.1301 -28.0851 -28.0813  -7.7008  -7.0916  -6.9944
    19.3279  20.5204  20.9181  23.2395  23.4390  24.1932  25.5542  27.0157
    27.3687  27.6043

          k = 0.0000 0.1000 0.4000 (  3501 PWs)   bands (ev):

   -62.0069 -31.1165 -28.1242 -28.0892 -28.0801  -7.9455  -7.0777  -6.9832
    20.4041  21.1163  21.4972  23.3218  23.3647  24.0795  24.8458  26.3567
    27.0048  27.6615

          k = 0.0000 0.1000-0.5000 (  3494 PWs)   bands (ev):

   -62.0053 -31.1145 -28.1173 -28.0965 -28.0781  -8.0373  -7.0724  -6.9788
    21.0040  21.2573  21.7917  23.2446  23.4231  23.9348  24.5865  26.1029
    26.9353  27.5770

          k = 0.0000 0.2000 0.2000 (  3493 PWs)   bands (ev):

   -62.0122 -31.1086 -28.1538 -28.0866 -28.0784  -7.4024  -7.3154  -6.9926
    18.8760  20.2279  20.7667  22.9472  23.3903  24.1802  26.4709  27.1503
    27.2670  27.6567

          k = 0.0000 0.2000 0.3000 (  3501 PWs)   bands (ev):

   -62.0070 -31.0819 -28.1695 -28.0924 -28.0808  -7.6615  -7.3187  -6.9730
    19.6302  20.5589  21.5371  22.7476  23.4090  23.9023  26.1446  26.6079
    27.4893  27.5860

          k = 0.0000 0.2000 0.4000 (  3502 PWs)   bands (ev):

   -62.0029 -31.0610 -28.1671 -28.1177 -28.0760  -7.8908  -7.2950  -6.9571
    20.2148  20.8352  22.1850  22.7464  23.4268  23.6342  25.7032  26.2187
    27.8300  27.9516

          k = 0.0000 0.2000-0.5000 (  3488 PWs)   bands (ev):

   -62.0013 -31.0532 -28.1526 -28.1407 -28.0742  -7.9773  -7.2855  -6.9510
    20.4298  20.9325  22.4251  22.8976  23.0832  23.8254  25.6423  25.9390
    28.0117  28.1903

          k = 0.0000 0.3000 0.3000 (  3499 PWs)   bands (ev):

   -62.0020 -31.0314 -28.2016 -28.1227 -28.0754  -7.6446  -7.5595  -6.9463
    19.7864  20.5515  22.3788  22.4239  23.3138  23.7778  26.4552  26.6758
    27.3727  28.1020

          k = 0.0000 0.3000 0.4000 (  3484 PWs)   bands (ev):

   -61.9979 -30.9902 -28.2124 -28.1624 -28.0711  -7.8232  -7.5557  -6.9246
    19.7696  20.5024  22.2336  22.7404  23.2083  24.5076  26.2944  26.7083
    27.9041  28.6789

          k = 0.0000 0.3000-0.5000 (  3494 PWs)   bands (ev):

   -61.9963 -30.9744 -28.1991 -28.1950 -28.0694  -7.9028  -7.5416  -6.9163
    19.7433  20.4679  22.3333  22.3800  23.4973  25.1572  25.9049  26.6700
    28.4250  29.0111

          k = 0.0000 0.4000 0.4000 (  3498 PWs)   bands (ev):

   -61.9938 -30.9312 -28.2404 -28.2087 -28.0670  -7.7807  -7.7486  -6.8982
    19.3857  20.2321  21.9396  22.2073  24.2783  25.3270  26.8926  27.4032
    27.5879  29.3612

          k = 0.0000 0.4000-0.5000 (  3480 PWs)   bands (ev):

   -61.9923 -30.9081 -28.2393 -28.2386 -28.0655  -7.8422  -7.7432  -6.8881
    19.2408  20.1309  21.9242  21.9306  24.7197  25.9508  26.6700  27.4601
    28.0645  29.7171

          k = 0.0000-0.5000-0.5000 (  3532 PWs)   bands (ev):

   -61.9907 -30.8821 -28.2553 -28.2553 -28.0640  -7.8190  -7.8190  -6.8773
    19.0596  20.0114  21.7767  21.7767  25.3712  26.0792  27.5959  27.5959
    27.6637  29.9737

          k = 0.1000 0.1000 0.1000 (  3506 PWs)   bands (ev):

   -62.0190 -31.1335 -28.1130 -28.1130 -28.0753  -7.1490  -7.1052  -7.1052
    17.7738  19.7672  19.7672  23.3866  23.3866  24.0382  26.8761  26.8761
    28.2593  29.4573

          k = 0.1000 0.1000 0.2000 (  3512 PWs)   bands (ev):

   -62.0148 -31.1212 -28.1309 -28.1076 -28.0693  -7.3806  -7.1083  -7.0956
    18.4996  20.1263  20.3330  23.1916  23.2858  24.1611  26.4357  27.1587
    27.5427  28.4377

          k = 0.1000 0.1000 0.3000 (  3510 PWs)   bands (ev):

   -62.0096 -31.1069 -28.1391 -28.1009 -28.0740  -7.6859  -7.0837  -7.0835
    19.5010  20.6757  21.0074  23.1532  23.1612  24.0428  25.8070  27.0213
    27.4104  27.6350

          k = 0.1000 0.1000 0.4000 (  3503 PWs)   bands (ev):

   -62.0054 -31.0963 -28.1353 -28.0954 -28.0869  -7.9262  -7.0741  -7.0628
    20.4864  21.3024  21.4086  22.9735  23.3655  23.8181  25.2077  26.6762
    26.6997  28.0727

          k = 0.1000 0.1000-0.5000 (  3468 PWs)   bands (ev):

   -62.0037 -31.0924 -28.1289 -28.0964 -28.0933  -8.0164  -7.0705  -7.0549
    21.0694  21.3232  21.6612  22.8175  23.6454  23.6694  24.9547  26.4072
    26.4583  28.3641

          k = 0.1000 0.2000 0.2000 (  3506 PWs)   bands (ev):

   -62.0106 -31.0963 -28.1514 -28.1114 -28.0687  -7.3880  -7.3119  -7.0844
    19.1161  20.4529  20.8384  22.8861  23.1361  23.9743  26.6211  27.1073
    27.2979  27.9876

          k = 0.1000 0.2000 0.3000 (  3499 PWs)   bands (ev):

   -62.0055 -31.0662 -28.1689 -28.1101 -28.0808  -7.6480  -7.3116  -7.0625
    19.8621  20.7904  21.5455  22.6867  23.1255  23.5435  26.3627  26.8920
    27.4148  27.8800

          k = 0.1000 0.2000 0.4000 (  3479 PWs)   bands (ev):

   -62.0013 -31.0424 -28.1697 -28.1221 -28.0898  -7.8758  -7.2880  -7.0439
    20.4133  21.0589  21.9759  22.6328  23.2407  23.4906  25.9880  26.3738
    27.2297  28.7367

          k = 0.1000 0.2000-0.5000 (  3486 PWs)   bands (ev):

   -61.9998 -31.0334 -28.1605 -28.1388 -28.0904  -7.9617  -7.2788  -7.0366
    20.6211  21.1208  22.0457  22.6463  23.1773  23.8521  25.8637  26.0768
    27.0331  29.3130

          k = 0.1000 0.3000 0.3000 (  3497 PWs)   bands (ev):

   -62.0005 -31.0153 -28.1990 -28.1301 -28.0874  -7.6300  -7.5567  -7.0358
    20.0415  20.7986  22.2678  22.4762  22.9739  23.4649  26.5974  26.8739
    27.3277  28.5493

          k = 0.1000 0.3000 0.4000 (  3488 PWs)   bands (ev):

   -61.9964 -30.9738 -28.2108 -28.1652 -28.0863  -7.8137  -7.5508  -7.0138
    19.9975  20.7386  22.1648  22.5007  23.2280  24.2161  26.3176  26.8670
    27.4447  29.4346

          k = 0.1000 0.3000-0.5000 (  3484 PWs)   bands (ev):

   -61.9948 -30.9579 -28.2021 -28.1925 -28.0852  -7.8938  -7.5373  -7.0052
    19.9553  20.6928  22.2057  22.2654  23.4779  24.8852  25.9547  26.8595
    27.3969  29.5688

          k = 0.1000 0.4000 0.4000 (  3492 PWs)   bands (ev):

   -61.9923 -30.9167 -28.2375 -28.2089 -28.0825  -7.7744  -7.7467  -6.9892
    19.6140  20.4723  21.9081  22.1323  24.1992  25.0830  26.5324  27.1974
    27.4988  29.7159

          k = 0.1000 0.4000-0.5000 (  3484 PWs)   bands (ev):

   -61.9908 -30.8945 -28.2379 -28.2357 -28.0809  -7.8386  -7.7409  -6.9797
    19.4681  20.3722  21.8889  21.8981  24.6322  25.9514  26.0970  27.1918
    27.6076  29.8827

          k = 0.1000-0.5000-0.5000 (  3504 PWs)   bands (ev):

   -61.9893 -30.8697 -28.2522 -28.2522 -28.0793  -7.8175  -7.8175  -6.9699
    19.2928  20.2584  21.7585  21.7585  25.3777  26.0759  26.6854  26.6854
    27.8119  31.0220

          k = 0.2000 0.2000 0.2000 (  3506 PWs)   bands (ev):

   -62.0065 -31.0642 -28.1453 -28.1453 -28.0739  -7.3675  -7.3029  -7.3029
    19.7420  21.0353  21.0353  22.7359  22.7359  23.3749  26.9759  26.9759
    27.7599  28.3915

          k = 0.2000 0.2000 0.3000 (  3505 PWs)   bands (ev):

   -62.0015 -31.0248 -28.1722 -28.1377 -28.0948  -7.6138  -7.2925  -7.2917
    20.4297  21.3004  21.6423  22.5685  22.6183  22.8734  26.7724  27.1594
    27.4335  28.5045

          k = 0.2000 0.2000 0.4000 (  3492 PWs)   bands (ev):

   -61.9974 -30.9930 -28.1828 -28.1316 -28.1221  -7.8368  -7.2826  -7.2537
    20.7890  21.5381  21.5570  22.4461  22.9668  23.2441  26.5719  26.7020
    26.7836  29.1932

          k = 0.2000 0.2000-0.5000 (  3500 PWs)   bands (ev):

   -61.9958 -30.9809 -28.1820 -28.1373 -28.1292  -7.9209  -7.2792  -7.2385
    20.9087  21.3412  21.6364  22.4016  23.1206  23.8066  26.2441  26.5027
    26.5386  29.3781

          k = 0.2000 0.3000 0.3000 (  3488 PWs)   bands (ev):

   -61.9965 -30.9729 -28.1920 -28.1518 -28.1165  -7.5915  -7.5495  -7.2659
    20.7578  21.4300  22.0950  22.3171  22.4928  22.7726  26.7595  27.1200
    27.5029  28.7067

          k = 0.2000 0.3000 0.4000 (  3487 PWs)   bands (ev):

   -61.9925 -30.9305 -28.2081 -28.1714 -28.1258  -7.7891  -7.5377  -7.2428
    20.6093  21.2715  21.9472  22.2262  23.1022  23.5541  26.3861  26.7878
    27.4708  29.2321

          k = 0.2000 0.3000-0.5000 (  3494 PWs)   bands (ev):

   -61.9909 -30.9142 -28.2102 -28.1861 -28.1264  -7.8703  -7.5265  -7.2335
    20.5093  21.1697  21.8824  22.2047  23.3042  24.2601  26.0122  26.5809
    27.4198  29.5246

          k = 0.2000 0.4000 0.4000 (  3490 PWs)   bands (ev):

   -61.9885 -30.8787 -28.2297 -28.2095 -28.1227  -7.7578  -7.7418  -7.2229
    20.2458  21.0549  21.8458  22.0251  23.9145  24.2624  26.2579  26.4854
    27.9752  29.6107

          k = 0.2000 0.4000-0.5000 (  3480 PWs)   bands (ev):

   -61.9870 -30.8585 -28.2345 -28.2281 -28.1212  -7.8293  -7.7351  -7.2151
    20.1023  20.9667  21.8134  21.8790  24.2542  24.9853  25.8713  26.3269
    28.0856  29.9271

          k = 0.2000-0.5000-0.5000 (  3476 PWs)   bands (ev):

   -61.9854 -30.8369 -28.2441 -28.2441 -28.1192  -7.8136  -7.8136  -7.2079
    19.9528  20.8955  21.7334  21.7334  25.3027  25.3027  25.3947  26.0395
    28.2718  30.2939

          k = 0.3000 0.3000 0.3000 (  3479 PWs)   bands (ev):

   -61.9916 -30.9197 -28.1833 -28.1833 -28.1482  -7.5454  -7.5406  -7.5406
    21.5215  21.9042  21.9323  21.9323  22.4495  22.4495  26.7209  26.7209
    28.3525  28.3525

          k = 0.3000 0.3000 0.4000 (  3489 PWs)   bands (ev):

   -61.9876 -30.8759 -28.2106 -28.1763 -28.1723  -7.7596  -7.5334  -7.5050
    21.1388  21.5519  21.8324  22.3651  22.8525  23.1564  26.2960  26.3832
    28.2448  29.2298

          k = 0.3000 0.3000-0.5000 (  3480 PWs)   bands (ev):

   -61.9861 -30.8591 -28.2210 -28.1816 -28.1736  -7.8413  -7.5306  -7.4902
    20.9759  21.4060  21.8033  22.3182  23.1095  23.7987  25.8807  26.2646
    28.2217  29.6280

          k = 0.3000 0.4000 0.4000 (  3471 PWs)   bands (ev):

   -61.9837 -30.8309 -28.2201 -28.2106 -28.1722  -7.7375  -7.7357  -7.5035
    21.0282  21.5716  21.8300  22.2592  23.3459  23.3897  26.0024  26.1009
    28.7767  29.6381

          k = 0.3000 0.4000-0.5000 (  3480 PWs)   bands (ev):

   -61.9822 -30.8136 -28.2304 -28.2187 -28.1708  -7.8179  -7.7280  -7.4978
    20.9556  21.4906  21.8474  22.0864  23.5458  23.9224  25.6700  26.0188
    28.8709  30.0029

          k = 0.3000-0.5000-0.5000 (  3484 PWs)   bands (ev):

   -61.9807 -30.7959 -28.2342 -28.2342 -28.1684  -7.8089  -7.8089  -7.4939
    20.9090  21.6523  21.7759  21.7759  24.0693  24.0693  25.4158  25.9023
    29.0446  30.3382

          k = 0.4000 0.4000 0.4000 (  3464 PWs)   bands (ev):

   -61.9798 -30.7918 -28.2123 -28.2123 -28.2116  -7.7309  -7.7309  -7.7147
    21.3694  21.9407  21.9407  22.7859  22.7859  22.9413  25.7971  25.7971
    29.6870  29.6870

          k = 0.4000 0.4000-0.5000 (  3494 PWs)   bands (ev):

   -61.9783 -30.7767 -28.2273 -28.2124 -28.2094  -7.8087  -7.7290  -7.7137
    21.5542  21.7435  22.1460  22.3870  22.9944  23.2098  25.5548  25.7451
    29.7081  30.1331

          k = 0.4000-0.5000-0.5000 (  3496 PWs)   bands (ev):

   -61.9769 -30.7626 -28.2261 -28.2261 -28.2079  -7.8051  -7.8051  -7.7191
    21.8876  21.9722  21.9722  22.2265  23.0925  23.0925  25.4329  25.6301
    29.9410  30.3743

          k =-0.5000-0.5000-0.5000 (  3448 PWs)   bands (ev):

   -61.9754 -30.7497 -28.2230 -28.2230 -28.2230  -7.8037  -7.8037  -7.8037
    22.3593  22.3593  22.3593  22.4343  22.4343  22.4343  25.4395  25.4395
    30.3882  30.3882

     the Fermi energy is    25.2379 ev

!    total energy              =    -448.42869539 Ry
     estimated scf accuracy    <          1.2E-09 Ry
     smearing contrib. (-TS)   =      -0.00000897 Ry
     internal energy E=F+TS    =    -448.42868643 Ry

     The total energy is F=E-TS. E is the sum of the following terms:
     one-electron contribution =    -107.66621479 Ry
     hartree contribution      =      77.67252351 Ry
     xc contribution           =     -53.58562708 Ry
     ewald contribution        =    -288.68966974 Ry
     one-center paw contrib.   =     -76.15969832 Ry

     convergence has been achieved in  20 iterations

     negative rho (up, down):  9.095E-04 0.000E+00

     Forces acting on atoms (cartesian axes, Ry/au):

     atom    1 type  1   force =     0.00000000    0.00000000    0.00000000
     atom    2 type  2   force =     0.00000000    0.00000000    0.00000000

     Total force =     0.000000     Total SCF correction =     0.000000


     Computing stress (Cartesian axis) and pressure


     negative rho (up, down):  9.095E-04 0.000E+00
          total   stress  (Ry/bohr**3)                   (kbar)     P=     1250.30
   0.00849936   0.00000000   0.00000000         1250.30        0.00        0.00
   0.00000000   0.00849936   0.00000000            0.00     1250.30        0.00
   0.00000000   0.00000000   0.00849936            0.00        0.00     1250.30


     Writing all to output data dir ./out/TiFe20.save/ :
     XML data file, charge density, pseudopotentials, collected wavefunctions

     init_run     :      1.37s CPU      1.54s WALL (       1 calls)
     electrons    :     62.64s CPU     75.74s WALL (       1 calls)
     forces       :      0.39s CPU      0.44s WALL (       1 calls)
     stress       :      1.78s CPU      1.93s WALL (       1 calls)

     Called by init_run:
     wfcinit      :      0.72s CPU      0.79s WALL (       1 calls)
     potinit      :      0.14s CPU      0.16s WALL (       1 calls)
     hinit0       :      0.20s CPU      0.21s WALL (       1 calls)

     Called by electrons:
     c_bands      :     47.67s CPU     55.97s WALL (      20 calls)
     sum_band     :      9.33s CPU     12.36s WALL (      20 calls)
     v_of_rho     :      0.82s CPU      0.92s WALL (      21 calls)
     newd         :      2.80s CPU      4.09s WALL (      21 calls)
     PAW_pot      :      2.00s CPU      2.40s WALL (      21 calls)
     mix_rho      :      0.11s CPU      0.12s WALL (      20 calls)

     Called by c_bands:
     init_us_2    :      0.66s CPU      0.72s WALL (    2408 calls)
     cegterg      :     45.95s CPU     53.89s WALL (    1120 calls)

     Called by *egterg:
     cdiaghg      :      2.06s CPU      2.26s WALL (    4634 calls)
     h_psi        :     33.58s CPU     40.41s WALL (    4690 calls)
     s_psi        :      1.55s CPU      1.63s WALL (    4690 calls)
     g_psi        :      0.08s CPU      0.08s WALL (    3514 calls)

     Called by h_psi:
     h_psi:calbec :      3.36s CPU      4.06s WALL (    4690 calls)
     vloc_psi     :     28.43s CPU     34.45s WALL (    4690 calls)
     add_vuspsi   :      1.58s CPU      1.67s WALL (    4690 calls)

     General routines
     calbec       :      5.01s CPU      6.01s WALL (    6762 calls)
     fft          :      0.49s CPU      0.57s WALL (     296 calls)
     ffts         :      0.02s CPU      0.02s WALL (      41 calls)
     fftw         :     29.47s CPU     36.46s WALL (  129014 calls)
     interpolate  :      0.05s CPU      0.05s WALL (      21 calls)

     Parallel routines

     PWSCF        :   1m 6.41s CPU   1m19.96s WALL


   This run was terminated on:  22:10:13  31Oct2025            

=------------------------------------------------------------------------------=
   JOB DONE.
=------------------------------------------------------------------------------=
