
     Program PWSCF v.7.4.1 starts on 31Oct2025 at 22: 5: 1 

     This program is part of the open-source Quantum ESPRESSO suite
     for quantum simulation of materials; please cite
         "P. Giannozzi et al., J. Phys.:Condens. Matter 21 395502 (2009);
         "P. Giannozzi et al., J. Phys.:Condens. Matter 29 465901 (2017);
         "P. Giannozzi et al., J. Chem. Phys. 152 154105 (2020);
          URL http://www.quantum-espresso.org", 
     in publications or presentations arising from this work. More details at
     http://www.quantum-espresso.org/quote

     Parallel version (MPI), running on     6 processors

     MPI processes distributed on     1 nodes
     1337 MiB available memory on the printing compute node when the environment starts

     Reading input from TiFe17.in

     Current dimensions of program PWSCF are:
     Max number of different atomic species (ntypx) = 10
     Max number of k-points (npk) =  40000
     Max angular momentum in pseudopotentials (lmaxx) =  4
     file Fe.pbe-spn-kjpaw_psl.0.2.1.UPF: wavefunction(s)  3D renormalized

     IMPORTANT: XC functional enforced from input :
     Exchange-correlation= PBE
                           (   1   4   3   4   0   0   0)
     Any further DFT definition will be discarded
     Please, verify this is what you really want

     Message from routine setup:
     using ibrav=0 with symmetry is DISCOURAGED, use correct ibrav instead

     R & G space division:  proc/nbgrp/npool/nimage =       6
     Subspace diagonalization in iterative solution of the eigenvalue problem:
     a serial algorithm will be used


     Parallelization info
     --------------------
     sticks:   dense  smooth     PW     G-vecs:    dense   smooth      PW
     Min         506     201     59                20998     5299     855
     Max         507     203     60                21001     5303     858
     Sum        3041    1209    357               125999    31799    5137

     Using Slab Decomposition



     bravais-lattice index     =            0
     lattice parameter (alat)  =       5.2201  a.u.
     unit-cell volume          =     142.2450 (a.u.)^3
     number of atoms/cell      =            2
     number of atomic types    =            2
     number of electrons       =        28.00
     number of Kohn-Sham states=           18
     kinetic-energy cutoff     =     140.0000  Ry
     charge density cutoff     =    1400.0000  Ry
     scf convergence threshold =      1.0E-08
     mixing beta               =       0.7000
     number of iterations used =            8  plain     mixing
     Exchange-correlation= PBE
                           (   1   4   3   4   0   0   0)

     celldm(1)=   5.220102  celldm(2)=   0.000000  celldm(3)=   0.000000
     celldm(4)=   0.000000  celldm(5)=   0.000000  celldm(6)=   0.000000

     crystal axes: (cart. coord. in units of alat)
               a(1) = (   1.000000   0.000000   0.000000 )  
               a(2) = (   0.000000   1.000000   0.000000 )  
               a(3) = (   0.000000   0.000000   1.000000 )  

     reciprocal axes: (cart. coord. in units 2 pi/alat)
               b(1) = (  1.000000  0.000000  0.000000 )  
               b(2) = (  0.000000  1.000000  0.000000 )  
               b(3) = (  0.000000  0.000000  1.000000 )  


     PseudoPot. # 1 for Fe read from file:
     /home/rafi/QE/qe-7.4.1/pseudo/Fe.pbe-spn-kjpaw_psl.0.2.1.UPF
     MD5 check sum: e86618425769142926afa95317d90200
     Pseudo is Projector augmented-wave + core cor, Zval = 16.0
     Generated using "atomic" code by A. Dal Corso  v.5.0.99 svn rev. 10869
     Shape of augmentation charge: PSQ
     Using radial grid of 1191 points,  6 beta functions with: 
                l(1) =   0
                l(2) =   0
                l(3) =   1
                l(4) =   1
                l(5) =   2
                l(6) =   2
     Q(r) pseudized with 0 coefficients 


     PseudoPot. # 2 for Ti read from file:
     /home/rafi/QE/qe-7.4.1/pseudo/ti_pbe_v1.4.uspp.F.UPF
     MD5 check sum: 88a00a6731bd790ddea75d31a80cb452
     Pseudo is Ultrasoft + core correction, Zval = 12.0
     Generated by new atomic code, or converted to UPF format
     Using radial grid of  851 points,  6 beta functions with: 
                l(1) =   0
                l(2) =   0
                l(3) =   1
                l(4) =   1
                l(5) =   2
                l(6) =   2
     Q(r) pseudized with  6 coefficients,  rinner =    1.000   1.000   1.000
                                                       1.000   1.000

     atomic species   valence    mass     pseudopotential
     Fe               16.00    55.84500     Fe( 1.00)
     Ti               12.00    47.86700     Ti( 1.00)

     48 Sym. Ops., with inversion, found



   Cartesian axes

     site n.     atom                  positions (alat units)
         1        Fe     tau(   1) = (   0.5000000   0.5000000   0.5000000  )
         2        Ti     tau(   2) = (   0.0000000   0.0000000   0.0000000  )

     number of k points=    56  Marzari-Vanderbilt smearing, width (Ry)=  0.0050
                       cart. coord. in units 2pi/alat
        k(    1) = (   0.0000000   0.0000000   0.0000000), wk =   0.0020000
        k(    2) = (   0.0000000   0.0000000   0.1000000), wk =   0.0120000
        k(    3) = (   0.0000000   0.0000000   0.2000000), wk =   0.0120000
        k(    4) = (   0.0000000   0.0000000   0.3000000), wk =   0.0120000
        k(    5) = (   0.0000000   0.0000000   0.4000000), wk =   0.0120000
        k(    6) = (   0.0000000   0.0000000  -0.5000000), wk =   0.0060000
        k(    7) = (   0.0000000   0.1000000   0.1000000), wk =   0.0240000
        k(    8) = (   0.0000000   0.1000000   0.2000000), wk =   0.0480000
        k(    9) = (   0.0000000   0.1000000   0.3000000), wk =   0.0480000
        k(   10) = (   0.0000000   0.1000000   0.4000000), wk =   0.0480000
        k(   11) = (   0.0000000   0.1000000  -0.5000000), wk =   0.0240000
        k(   12) = (   0.0000000   0.2000000   0.2000000), wk =   0.0240000
        k(   13) = (   0.0000000   0.2000000   0.3000000), wk =   0.0480000
        k(   14) = (   0.0000000   0.2000000   0.4000000), wk =   0.0480000
        k(   15) = (   0.0000000   0.2000000  -0.5000000), wk =   0.0240000
        k(   16) = (   0.0000000   0.3000000   0.3000000), wk =   0.0240000
        k(   17) = (   0.0000000   0.3000000   0.4000000), wk =   0.0480000
        k(   18) = (   0.0000000   0.3000000  -0.5000000), wk =   0.0240000
        k(   19) = (   0.0000000   0.4000000   0.4000000), wk =   0.0240000
        k(   20) = (   0.0000000   0.4000000  -0.5000000), wk =   0.0240000
        k(   21) = (   0.0000000  -0.5000000  -0.5000000), wk =   0.0060000
        k(   22) = (   0.1000000   0.1000000   0.1000000), wk =   0.0160000
        k(   23) = (   0.1000000   0.1000000   0.2000000), wk =   0.0480000
        k(   24) = (   0.1000000   0.1000000   0.3000000), wk =   0.0480000
        k(   25) = (   0.1000000   0.1000000   0.4000000), wk =   0.0480000
        k(   26) = (   0.1000000   0.1000000  -0.5000000), wk =   0.0240000
        k(   27) = (   0.1000000   0.2000000   0.2000000), wk =   0.0480000
        k(   28) = (   0.1000000   0.2000000   0.3000000), wk =   0.0960000
        k(   29) = (   0.1000000   0.2000000   0.4000000), wk =   0.0960000
        k(   30) = (   0.1000000   0.2000000  -0.5000000), wk =   0.0480000
        k(   31) = (   0.1000000   0.3000000   0.3000000), wk =   0.0480000
        k(   32) = (   0.1000000   0.3000000   0.4000000), wk =   0.0960000
        k(   33) = (   0.1000000   0.3000000  -0.5000000), wk =   0.0480000
        k(   34) = (   0.1000000   0.4000000   0.4000000), wk =   0.0480000
        k(   35) = (   0.1000000   0.4000000  -0.5000000), wk =   0.0480000
        k(   36) = (   0.1000000  -0.5000000  -0.5000000), wk =   0.0120000
        k(   37) = (   0.2000000   0.2000000   0.2000000), wk =   0.0160000
        k(   38) = (   0.2000000   0.2000000   0.3000000), wk =   0.0480000
        k(   39) = (   0.2000000   0.2000000   0.4000000), wk =   0.0480000
        k(   40) = (   0.2000000   0.2000000  -0.5000000), wk =   0.0240000
        k(   41) = (   0.2000000   0.3000000   0.3000000), wk =   0.0480000
        k(   42) = (   0.2000000   0.3000000   0.4000000), wk =   0.0960000
        k(   43) = (   0.2000000   0.3000000  -0.5000000), wk =   0.0480000
        k(   44) = (   0.2000000   0.4000000   0.4000000), wk =   0.0480000
        k(   45) = (   0.2000000   0.4000000  -0.5000000), wk =   0.0480000
        k(   46) = (   0.2000000  -0.5000000  -0.5000000), wk =   0.0120000
        k(   47) = (   0.3000000   0.3000000   0.3000000), wk =   0.0160000
        k(   48) = (   0.3000000   0.3000000   0.4000000), wk =   0.0480000
        k(   49) = (   0.3000000   0.3000000  -0.5000000), wk =   0.0240000
        k(   50) = (   0.3000000   0.4000000   0.4000000), wk =   0.0480000
        k(   51) = (   0.3000000   0.4000000  -0.5000000), wk =   0.0480000
        k(   52) = (   0.3000000  -0.5000000  -0.5000000), wk =   0.0120000
        k(   53) = (   0.4000000   0.4000000   0.4000000), wk =   0.0160000
        k(   54) = (   0.4000000   0.4000000  -0.5000000), wk =   0.0240000
        k(   55) = (   0.4000000  -0.5000000  -0.5000000), wk =   0.0120000
        k(   56) = (  -0.5000000  -0.5000000  -0.5000000), wk =   0.0020000

     Dense  grid:   125999 G-vectors     FFT dimensions: (  64,  64,  64)

     Smooth grid:    31799 G-vectors     FFT dimensions: (  40,  40,  40)

     Estimated max dynamical RAM per process >      93.50 MB

     Estimated total dynamical RAM >     561.01 MB

     Check: negative core charge=   -0.000004

     Initial potential from superposition of free atoms

     starting charge      26.9995, renormalised to      28.0000

     negative rho (up, down):  1.380E-03 0.000E+00
     Starting wfcs are   23 randomized atomic wfcs
     Checking if some PAW data can be deallocated... 

     total cpu time spent up to now is        1.9 secs

     Self-consistent Calculation

     iteration #  1     ecut=   140.00 Ry     beta= 0.70
     Davidson diagonalization with overlap
     ethr =  1.00E-02,  avg # of iterations =  2.1

     negative rho (up, down):  7.125E-05 0.000E+00

     total cpu time spent up to now is        5.8 secs

     total energy              =    -438.02413053 Ry
     estimated scf accuracy    <      13.58426465 Ry

     iteration #  2     ecut=   140.00 Ry     beta= 0.70
     Davidson diagonalization with overlap
     ethr =  1.00E-02,  avg # of iterations =  5.7

     negative rho (up, down):  9.408E-05 0.000E+00

     total cpu time spent up to now is       12.4 secs

     total energy              =    -448.17920583 Ry
     estimated scf accuracy    <      53.89589430 Ry

     iteration #  3     ecut=   140.00 Ry     beta= 0.70
     Davidson diagonalization with overlap
     ethr =  1.00E-02,  avg # of iterations =  2.9

     negative rho (up, down):  2.961E-04 0.000E+00

     total cpu time spent up to now is       16.9 secs

     total energy              =    -448.37113054 Ry
     estimated scf accuracy    <      13.19190778 Ry

     iteration #  4     ecut=   140.00 Ry     beta= 0.70
     Davidson diagonalization with overlap
     ethr =  1.00E-02,  avg # of iterations =  2.1

     negative rho (up, down):  2.507E-04 0.000E+00

     total cpu time spent up to now is       20.5 secs

     total energy              =    -448.88801665 Ry
     estimated scf accuracy    <       3.09269562 Ry

     iteration #  5     ecut=   140.00 Ry     beta= 0.70
     Davidson diagonalization with overlap
     ethr =  1.00E-02,  avg # of iterations =  1.0

     negative rho (up, down):  5.628E-04 0.000E+00

     total cpu time spent up to now is       23.3 secs

     total energy              =    -448.41821621 Ry
     estimated scf accuracy    <       2.74680139 Ry

     iteration #  6     ecut=   140.00 Ry     beta= 0.70
     Davidson diagonalization with overlap
     ethr =  9.81E-03,  avg # of iterations =  1.4

     negative rho (up, down):  6.470E-04 0.000E+00

     total cpu time spent up to now is       29.7 secs

     total energy              =    -448.56196860 Ry
     estimated scf accuracy    <       0.26690006 Ry

     iteration #  7     ecut=   140.00 Ry     beta= 0.70
     Davidson diagonalization with overlap
     ethr =  9.53E-04,  avg # of iterations =  2.8

     negative rho (up, down):  1.139E-03 0.000E+00

     total cpu time spent up to now is       33.1 secs

     total energy              =    -448.48362720 Ry
     estimated scf accuracy    <       0.21722712 Ry

     iteration #  8     ecut=   140.00 Ry     beta= 0.70
     Davidson diagonalization with overlap
     ethr =  7.76E-04,  avg # of iterations =  3.3

     negative rho (up, down):  1.093E-03 0.000E+00

     total cpu time spent up to now is       36.2 secs

     total energy              =    -448.53773715 Ry
     estimated scf accuracy    <       0.02248545 Ry

     iteration #  9     ecut=   140.00 Ry     beta= 0.70
     Davidson diagonalization with overlap
     ethr =  8.03E-05,  avg # of iterations =  4.8

     negative rho (up, down):  8.703E-04 0.000E+00

     total cpu time spent up to now is       40.3 secs

     total energy              =    -448.54013234 Ry
     estimated scf accuracy    <       0.12154758 Ry

     iteration # 10     ecut=   140.00 Ry     beta= 0.70
     Davidson diagonalization with overlap
     ethr =  8.03E-05,  avg # of iterations =  2.0

     negative rho (up, down):  9.027E-04 0.000E+00

     total cpu time spent up to now is       44.1 secs

     total energy              =    -448.53160792 Ry
     estimated scf accuracy    <       0.11002952 Ry

     iteration # 11     ecut=   140.00 Ry     beta= 0.70
     Davidson diagonalization with overlap
     ethr =  8.03E-05,  avg # of iterations =  2.1

     negative rho (up, down):  9.210E-04 0.000E+00

     total cpu time spent up to now is       47.6 secs

     total energy              =    -448.53377472 Ry
     estimated scf accuracy    <       0.01483311 Ry

     iteration # 12     ecut=   140.00 Ry     beta= 0.70
     Davidson diagonalization with overlap
     ethr =  5.30E-05,  avg # of iterations =  1.1

     negative rho (up, down):  8.800E-04 0.000E+00

     total cpu time spent up to now is       51.6 secs

     WARNING: integrated charge=    27.98745591, expected=    28.00000000

     total energy              =    -448.52024541 Ry
     estimated scf accuracy    <       0.00338123 Ry

     iteration # 13     ecut=   140.00 Ry     beta= 0.70
     Davidson diagonalization with overlap
     ethr =  1.21E-05,  avg # of iterations =  3.9

     negative rho (up, down):  9.266E-04 0.000E+00

     total cpu time spent up to now is       55.3 secs

     WARNING: integrated charge=    28.01549856, expected=    28.00000000

     total energy              =    -448.53385709 Ry
     estimated scf accuracy    <       0.02078841 Ry

     iteration # 14     ecut=   140.00 Ry     beta= 0.70
     Davidson diagonalization with overlap
     ethr =  1.21E-05,  avg # of iterations =  1.9
     Minimization algorithm failed to find Fermi energy: reverting to bisection
     Possible cause: smearing is larger than the electronic band-gap.

     negative rho (up, down):  9.597E-04 0.000E+00

     total cpu time spent up to now is       58.3 secs

     WARNING: integrated charge=    28.01810556, expected=    28.00000000

     total energy              =    -448.53357541 Ry
     estimated scf accuracy    <       0.00483048 Ry

     iteration # 15     ecut=   140.00 Ry     beta= 0.70
     Davidson diagonalization with overlap
     ethr =  1.21E-05,  avg # of iterations =  2.8

     negative rho (up, down):  9.524E-04 0.000E+00

     total cpu time spent up to now is       61.1 secs

     WARNING: integrated charge=    27.99738213, expected=    28.00000000

     total energy              =    -448.53391042 Ry
     estimated scf accuracy    <       0.00007667 Ry

     iteration # 16     ecut=   140.00 Ry     beta= 0.70
     Davidson diagonalization with overlap
     ethr =  2.74E-07,  avg # of iterations =  3.9

     negative rho (up, down):  9.560E-04 0.000E+00

     total cpu time spent up to now is       65.0 secs

     WARNING: integrated charge=    27.99865514, expected=    28.00000000

     total energy              =    -448.53392898 Ry
     estimated scf accuracy    <       0.00000925 Ry

     iteration # 17     ecut=   140.00 Ry     beta= 0.70
     Davidson diagonalization with overlap
     ethr =  3.30E-08,  avg # of iterations =  3.1

     negative rho (up, down):  9.565E-04 0.000E+00

     total cpu time spent up to now is       68.1 secs

     WARNING: integrated charge=    27.99875147, expected=    28.00000000

     total energy              =    -448.53393027 Ry
     estimated scf accuracy    <       0.00000087 Ry

     iteration # 18     ecut=   140.00 Ry     beta= 0.70
     Davidson diagonalization with overlap
     ethr =  3.12E-09,  avg # of iterations =  4.1

     negative rho (up, down):  9.568E-04 0.000E+00

     total cpu time spent up to now is       72.1 secs

     WARNING: integrated charge=    27.99984751, expected=    28.00000000

     total energy              =    -448.53393064 Ry
     estimated scf accuracy    <       0.00000014 Ry

     iteration # 19     ecut=   140.00 Ry     beta= 0.70
     Davidson diagonalization with overlap
     ethr =  4.91E-10,  avg # of iterations =  2.2

     negative rho (up, down):  9.567E-04 0.000E+00

     total cpu time spent up to now is       75.4 secs

     WARNING: integrated charge=    28.00005599, expected=    28.00000000

     total energy              =    -448.53393064 Ry
     estimated scf accuracy    <       0.00000007 Ry

     iteration # 20     ecut=   140.00 Ry     beta= 0.70
     Davidson diagonalization with overlap
     ethr =  2.42E-10,  avg # of iterations =  1.8

     negative rho (up, down):  9.565E-04 0.000E+00

     total cpu time spent up to now is       79.6 secs

     End of self-consistent calculation

          k = 0.0000 0.0000 0.0000 (  3911 PWs)   bands (ev):

   -65.2344 -34.6567 -31.3046 -31.3046 -31.3046 -10.6644 -10.6644 -10.6644
    13.7930  16.8709  16.8709  20.5113  20.5113  20.5113  23.4352  23.4352
    25.9330  25.9330

          k = 0.0000 0.0000 0.1000 (  3939 PWs)   bands (ev):

   -65.2336 -34.6535 -31.3084 -31.3035 -31.3035 -10.7317 -10.6612 -10.6612
    14.0426  16.9939  17.0334  20.4939  20.4939  20.5695  23.2594  23.5046
    25.5413  25.5413

          k = 0.0000 0.0000 0.2000 (  3956 PWs)   bands (ev):

   -65.2313 -34.6451 -31.3178 -31.3007 -31.3007 -10.9055 -10.6529 -10.6529
    14.7508  17.3533  17.4569  20.4593  20.4593  20.7306  22.7597  23.6660
    24.6759  24.6759

          k = 0.0000 0.0000 0.3000 (  3988 PWs)   bands (ev):

   -65.2286 -34.6350 -31.3290 -31.2971 -31.2971 -11.1153 -10.6426 -10.6426
    15.7982  17.9140  17.9516  20.4443  20.4443  20.9509  22.0213  23.7442
    23.7804  23.7804

          k = 0.0000 0.0000 0.4000 (  4004 PWs)   bands (ev):

   -65.2263 -34.6270 -31.3377 -31.2942 -31.2942 -11.2814 -10.6343 -10.6343
    16.9675  18.2173  18.5794  20.4654  20.4654  21.1520  21.2095  23.1221
    23.1221  23.5006

          k = 0.0000 0.0000-0.5000 (  3980 PWs)   bands (ev):

   -65.2255 -34.6240 -31.3408 -31.2931 -31.2931 -11.3440 -10.6311 -10.6311
    17.8066  18.0001  18.9817  20.4852  20.4852  20.7508  21.2360  22.8758
    22.8759  23.2539

          k = 0.0000 0.1000 0.1000 (  3958 PWs)   bands (ev):

   -65.2327 -34.6494 -31.3135 -31.3025 -31.3022 -10.7368 -10.7182 -10.6577
    14.2837  17.1247  17.1807  20.3587  20.4627  20.7245  23.2420  23.4573
    25.1209  25.1569

          k = 0.0000 0.1000 0.2000 (  3950 PWs)   bands (ev):

   -65.2305 -34.6390 -31.3237 -31.3016 -31.2996 -10.8998 -10.7152 -10.6486
    14.9642  17.4558  17.6065  20.2379  20.3932  20.8948  22.8709  23.6006
    24.3366  24.3958

          k = 0.0000 0.1000 0.3000 (  3979 PWs)   bands (ev):

   -65.2277 -34.6262 -31.3348 -31.3020 -31.2962 -11.1058 -10.7022 -10.6372
    15.9584  17.9263  18.1352  20.1941  20.3254  20.9730  22.2645  23.4036
    23.7715  23.8863

          k = 0.0000 0.1000 0.4000 (  3987 PWs)   bands (ev):

   -65.2255 -34.6161 -31.3430 -31.3028 -31.2933 -11.2689 -10.6915 -10.6280
    17.0445  18.2275  18.6665  20.2443  20.2537  20.8904  21.6654  22.8486
    23.4572  23.8126

          k = 0.0000 0.1000-0.5000 (  3982 PWs)   bands (ev):

   -65.2247 -34.6123 -31.3460 -31.3031 -31.2923 -11.3305 -10.6875 -10.6245
    17.7885  18.0415  18.9964  20.1649  20.3087  20.7901  21.4234  22.6257
    23.3908  23.6786

          k = 0.0000 0.2000 0.2000 (  3962 PWs)   bands (ev):

   -65.2283 -34.6229 -31.3366 -31.3066 -31.2970 -10.9044 -10.8565 -10.6371
    15.5504  17.6681  18.0660  19.9645  20.2699  20.9526  23.0069  23.5391
    23.6393  24.0252

          k = 0.0000 0.2000 0.3000 (  3988 PWs)   bands (ev):

   -65.2256 -34.6032 -31.3493 -31.3157 -31.2937 -11.0813 -10.8555 -10.6230
    16.3493  17.9031  18.6718  19.7965  20.2169  20.7247  22.7507  23.0486
    23.7897  23.9581

          k = 0.0000 0.2000 0.4000 (  3973 PWs)   bands (ev):

   -65.2234 -34.5874 -31.3573 -31.3250 -31.2910 -11.2364 -10.8394 -10.6115
    17.1117  18.0055  19.1853  19.7866  20.3399  20.3439  22.3746  22.7092
    24.0742  24.1447

          k = 0.0000 0.2000-0.5000 (  3984 PWs)   bands (ev):

   -65.2225 -34.5813 -31.3596 -31.3292 -31.2900 -11.2951 -10.8330 -10.6071
    17.5087  17.9318  19.3832  19.8905  20.0822  20.4847  22.3243  22.4514
    24.1899  24.2856

          k = 0.0000 0.3000 0.3000 (  3980 PWs)   bands (ev):

   -65.2229 -34.5746 -31.3652 -31.3345 -31.2906 -11.0695 -11.0224 -10.6053
    16.7418  17.8231  19.4016  19.4915  20.2442  20.4002  22.8966  23.1780
    23.6767  24.3793

          k = 0.0000 0.3000 0.4000 (  3976 PWs)   bands (ev):

   -65.2207 -34.5514 -31.3750 -31.3527 -31.2881 -11.1961 -11.0182 -10.5910
    16.9672  17.7013  19.3671  19.7769  20.0323  20.9724  22.7252  23.2086
    24.0300  24.8507

          k = 0.0000 0.3000-0.5000 (  3984 PWs)   bands (ev):

   -65.2199 -34.5425 -31.3770 -31.3614 -31.2872 -11.2512 -11.0093 -10.5855
    17.0363  17.6350  19.4363  19.4924  20.2540  21.5163  22.4031  23.1932
    24.3612  25.1201

          k = 0.0000 0.4000 0.4000 (  4000 PWs)   bands (ev):

   -65.2185 -34.5219 -31.3884 -31.3764 -31.2858 -11.1707 -11.1529 -10.5744
    16.7523  17.4707  19.1226  19.3385  20.9565  21.7231  23.1199  23.7261
    23.7525  25.4160

          k = 0.0000 0.4000-0.5000 (  3988 PWs)   bands (ev):

   -65.2177 -34.5105 -31.3916 -31.3873 -31.2849 -11.2155 -11.1491 -10.5680
    16.6598  17.3863  19.1049  19.1146  21.3331  22.4269  22.7769  23.8305
    24.0058  25.7085

          k = 0.0000-0.5000-0.5000 (  4012 PWs)   bands (ev):

   -65.2169 -34.4982 -31.3972 -31.3972 -31.2840 -11.2019 -11.2019 -10.5613
    16.5210  17.2947  18.9851  18.9851  21.9627  22.5436  23.5203  23.5203
    24.0001  25.9218

          k = 0.1000 0.1000 0.1000 (  3953 PWs)   bands (ev):

   -65.2319 -34.6447 -31.3123 -31.3123 -31.2972 -10.7394 -10.7150 -10.7150
    14.5183  17.2887  17.2887  20.3231  20.3231  20.8442  23.3334  23.3334
    24.5126  25.5103

          k = 0.1000 0.1000 0.2000 (  3951 PWs)   bands (ev):

   -65.2297 -34.6324 -31.3255 -31.3093 -31.2966 -10.8937 -10.7146 -10.7065
    15.1776  17.6011  17.7116  20.1581  20.2317  20.9325  22.9808  23.5428
    23.9115  24.6471

          k = 0.1000 0.1000 0.3000 (  3989 PWs)   bands (ev):

   -65.2269 -34.6175 -31.3384 -31.3056 -31.2988 -11.0965 -10.6976 -10.6961
    16.1295  18.0770  18.1820  20.1099  20.1110  20.8366  22.4709  23.4052
    23.7802  23.9296

          k = 0.1000 0.1000 0.4000 (  3989 PWs)   bands (ev):

   -65.2247 -34.6055 -31.3473 -31.3026 -31.3016 -11.2573 -10.6876 -10.6835
    17.1495  18.3645  18.6168  19.9512  20.2456  20.6628  21.9719  23.0672
    23.1685  24.2305

          k = 0.1000 0.1000-0.5000 (  3978 PWs)   bands (ev):

   -65.2238 -34.6010 -31.3505 -31.3029 -31.3015 -11.3180 -10.6843 -10.6781
    17.8382  18.1277  18.9266  19.8175  20.4448  20.5480  21.7542  22.8245
    22.9478  24.4290

          k = 0.1000 0.2000 0.2000 (  3972 PWs)   bands (ev):

   -65.2275 -34.6154 -31.3353 -31.3146 -31.2980 -10.8957 -10.8532 -10.6980
    15.7619  17.8467  18.1292  19.9088  20.0821  20.7695  23.1255  23.5048
    23.6804  24.2728

          k = 0.1000 0.2000 0.3000 (  3981 PWs)   bands (ev):

   -65.2247 -34.5944 -31.3492 -31.3186 -31.3003 -11.0729 -10.8503 -10.6825
    16.5500  18.0960  18.6773  19.7348  20.0102  20.4242  22.9257  23.2839
    23.7465  24.1622

          k = 0.1000 0.2000 0.4000 (  3982 PWs)   bands (ev):

   -65.2225 -34.5775 -31.3592 -31.3249 -31.3001 -11.2270 -10.8342 -10.6697
    17.2844  18.1987  19.0360  19.6638  20.1216  20.2870  22.6225  22.8311
    23.5458  24.8201

          k = 0.1000 0.2000-0.5000 (  3988 PWs)   bands (ev):

   -65.2217 -34.5710 -31.3625 -31.3282 -31.2997 -11.2853 -10.8279 -10.6647
    17.6655  18.0983  19.1413  19.6489  20.0853  20.5248  22.5244  22.5537
    23.3693  25.3432

          k = 0.1000 0.3000 0.3000 (  3991 PWs)   bands (ev):

   -65.2221 -34.5657 -31.3638 -31.3366 -31.2992 -11.0604 -11.0193 -10.6647
    16.9637  18.0203  19.3603  19.4756  19.9548  20.1650  23.0255  23.3612
    23.6310  24.7096

          k = 0.1000 0.3000 0.4000 (  3965 PWs)   bands (ev):

   -65.2199 -34.5424 -31.3745 -31.3529 -31.2974 -11.1895 -11.0139 -10.6501
    17.1713  17.8953  19.3053  19.5568  20.0450  20.7341  22.7610  23.3418
    23.6937  25.4311

          k = 0.1000 0.3000-0.5000 (  3982 PWs)   bands (ev):

   -65.2191 -34.5334 -31.3778 -31.3601 -31.2967 -11.2447 -11.0053 -10.6444
    17.2230  17.8271  19.3417  19.3631  20.2203  21.3022  22.4389  23.3577
    23.6178  25.6077

          k = 0.1000 0.4000 0.4000 (  3985 PWs)   bands (ev):

   -65.2177 -34.5137 -31.3868 -31.3760 -31.2951 -11.1656 -11.1501 -10.6341
    16.9534  17.6685  19.0896  19.2669  20.8764  21.4684  22.8933  23.4054
    23.8711  25.7416

          k = 0.1000 0.4000-0.5000 (  3984 PWs)   bands (ev):

   -65.2169 -34.5026 -31.3906 -31.3858 -31.2942 -11.2118 -11.1461 -10.6280
    16.8576  17.5853  19.0729  19.0732  21.2351  22.3152  22.4222  23.3715
    23.9642  25.8810

          k = 0.1000-0.5000-0.5000 (  3992 PWs)   bands (ev):

   -65.2161 -34.4907 -31.3956 -31.3956 -31.2933 -11.1992 -11.1992 -10.6217
    16.7225  17.4959  18.9618  18.9618  21.9679  22.5424  22.8141  22.8141
    24.1291  26.7688

          k = 0.2000 0.2000 0.2000 (  3989 PWs)   bands (ev):

   -65.2253 -34.5956 -31.3320 -31.3320 -31.3042 -10.8833 -10.8446 -10.8446
    16.3341  18.3036  18.3036  19.7679  19.7679  20.2673  23.4001  23.4001
    24.0418  24.6055

          k = 0.2000 0.2000 0.3000 (  3980 PWs)   bands (ev):

   -65.2226 -34.5712 -31.3510 -31.3279 -31.3141 -11.0513 -10.8384 -10.8340
    17.0670  18.5427  18.7346  19.5995  19.6273  19.8575  23.2372  23.4851
    23.8038  24.6552

          k = 0.2000 0.2000 0.4000 (  3972 PWs)   bands (ev):

   -65.2204 -34.5513 -31.3651 -31.3246 -31.3233 -11.2024 -10.8255 -10.8150
    17.6545  18.5902  18.7683  19.4570  19.8356  20.0901  23.0365  23.0688
    23.2738  25.3030

          k = 0.2000 0.2000-0.5000 (  3974 PWs)   bands (ev):

   -65.2196 -34.5438 -31.3702 -31.3270 -31.3233 -11.2596 -10.8222 -10.8058
    17.9239  18.3481  18.8704  19.3935  19.9571  20.4832  22.6293  22.9862
    23.1004  25.4520

          k = 0.2000 0.3000 0.3000 (  3979 PWs)   bands (ev):

   -65.2199 -34.5423 -31.3600 -31.3427 -31.3210 -11.0365 -11.0112 -10.8181
    17.5806  18.5309  19.2386  19.3931  19.4436  19.6445  23.1642  23.4402
    23.9010  24.9033

          k = 0.2000 0.3000 0.4000 (  3972 PWs)   bands (ev):

   -65.2178 -34.5187 -31.3739 -31.3529 -31.3217 -11.1722 -11.0025 -10.8027
    17.7273  18.3548  19.1140  19.2780  19.8828  20.2326  22.8220  23.1448
    23.8752  25.3439

          k = 0.2000 0.3000-0.5000 (  3978 PWs)   bands (ev):

   -65.2170 -34.5097 -31.3800 -31.3566 -31.3214 -11.2278 -10.9950 -10.7966
    17.7179  18.2626  19.0584  19.2491  20.0339  20.8100  22.4639  22.9959
    23.8358  25.5804

          k = 0.2000 0.4000 0.4000 (  3992 PWs)   bands (ev):

   -65.2156 -34.4920 -31.3827 -31.3753 -31.3195 -11.1522 -11.1426 -10.7885
    17.5154  18.1615  19.0177  19.1403  20.6029  20.7580  22.7178  22.8448
    24.2875  25.6707

          k = 0.2000 0.4000-0.5000 (  3972 PWs)   bands (ev):

   -65.2148 -34.4818 -31.3882 -31.3818 -31.3185 -11.2020 -11.1381 -10.7830
    17.4125  18.0871  18.9892  19.0208  20.8513  21.4111  22.3407  22.7497
    24.3777  25.9335

          k = 0.2000-0.5000-0.5000 (  3984 PWs)   bands (ev):

   -65.2140 -34.4710 -31.3914 -31.3914 -31.3174 -11.1921 -11.1921 -10.7778
    17.2938  18.0177  18.9175  18.9175  21.6844  21.6844  21.9814  22.5159
    24.5271  26.2489

          k = 0.3000 0.3000 0.3000 (  3965 PWs)   bands (ev):

   -65.2173 -34.5130 -31.3554 -31.3554 -31.3427 -11.0096 -11.0011 -11.0011
    18.3445  18.8258  19.0976  19.0976  19.3822  19.3822  23.1081  23.1081
    24.6192  24.6192

          k = 0.3000 0.3000 0.4000 (  3977 PWs)   bands (ev):

   -65.2152 -34.4892 -31.3747 -31.3517 -31.3514 -11.1512 -10.9929 -10.9826
    18.2968  18.6315  19.0005  19.3005  19.5793  19.9499  22.7176  22.8372
    24.5310  25.3487

          k = 0.3000 0.3000-0.5000 (  3978 PWs)   bands (ev):

   -65.2144 -34.4801 -31.3828 -31.3540 -31.3503 -11.2068 -10.9897 -10.9734
    18.1723  18.5321  18.9693  19.2591  19.8294  20.4447  22.3542  22.7426
    24.5122  25.6745

          k = 0.3000 0.4000 0.4000 (  3984 PWs)   bands (ev):

   -65.2131 -34.4651 -31.3777 -31.3744 -31.3495 -11.1356 -11.1334 -10.9755
    18.2435  18.6529  18.9739  19.2321  19.9900  20.1390  22.4770  22.5853
    24.9710  25.6968

          k = 0.3000 0.4000-0.5000 (  3996 PWs)   bands (ev):

   -65.2123 -34.4559 -31.3853 -31.3769 -31.3485 -11.1898 -11.1282 -10.9708
    18.1718  18.5900  18.9831  19.0908  20.2179  20.5480  22.1948  22.5149
    25.0484  26.0000

          k = 0.3000-0.5000-0.5000 (  4008 PWs)   bands (ev):

   -65.2115 -34.4466 -31.3862 -31.3862 -31.3472 -11.1833 -11.1833 -10.9669
    18.1236  18.6444  18.9164  18.9164  20.6733  20.6733  21.9982  22.4056
    25.1891  26.2842

          k = 0.4000 0.4000 0.4000 (  3981 PWs)   bands (ev):

   -65.2110 -34.4432 -31.3738 -31.3736 -31.3736 -11.1260 -11.1260 -11.1201
    18.5564  19.0322  19.0322  19.6273  19.6379  19.6379  22.3204  22.3204
    25.7377  25.7377

          k = 0.4000 0.4000-0.5000 (  3982 PWs)   bands (ev):

   -65.2102 -34.4348 -31.3829 -31.3735 -31.3721 -11.1800 -11.1231 -11.1169
    18.7065  18.8322  19.2231  19.2761  19.7426  19.9818  22.1105  22.2802
    25.7552  26.1097

          k = 0.4000-0.5000-0.5000 (  3960 PWs)   bands (ev):

   -65.2094 -34.4267 -31.3820 -31.3820 -31.3712 -11.1763 -11.1763 -11.1169
    18.9757  19.0351  19.0351  19.1262  19.8870  19.8870  22.0118  22.1788
    25.9485  26.3129

          k =-0.5000-0.5000-0.5000 (  3912 PWs)   bands (ev):

   -65.2086 -34.4191 -31.3804 -31.3804 -31.3804 -11.1735 -11.1735 -11.1735
    19.3021  19.3021  19.3021  19.3876  19.3876  19.3876  22.0170  22.0170
    26.3240  26.3240

     the Fermi energy is    21.7729 ev

!    total energy              =    -448.53393064 Ry
     estimated scf accuracy    <          1.0E-08 Ry
     smearing contrib. (-TS)   =       0.00004304 Ry
     internal energy E=F+TS    =    -448.53397368 Ry

     The total energy is F=E-TS. E is the sum of the following terms:
     one-electron contribution =    -126.05047551 Ry
     hartree contribution      =      83.34033043 Ry
     xc contribution           =     -53.26114514 Ry
     ewald contribution        =    -276.40500295 Ry
     one-center paw contrib.   =     -76.15768051 Ry

     convergence has been achieved in  20 iterations

     negative rho (up, down):  9.565E-04 0.000E+00

     Forces acting on atoms (cartesian axes, Ry/au):

     atom    1 type  1   force =     0.00000000    0.00000000    0.00000000
     atom    2 type  2   force =     0.00000000    0.00000000    0.00000000

     Total force =     0.000000     Total SCF correction =     0.000000


     Computing stress (Cartesian axis) and pressure


     negative rho (up, down):  9.565E-04 0.000E+00
          total   stress  (Ry/bohr**3)                   (kbar)     P=      587.10
   0.00399103   0.00000000   0.00000000          587.10        0.00        0.00
   0.00000000   0.00399103   0.00000000            0.00      587.10        0.00
   0.00000000   0.00000000   0.00399103            0.00        0.00      587.10


     Writing all to output data dir ./out/TiFe17.save/ :
     XML data file, charge density, pseudopotentials, collected wavefunctions

     init_run     :      1.49s CPU      1.71s WALL (       1 calls)
     electrons    :     64.78s CPU     77.70s WALL (       1 calls)
     forces       :      0.43s CPU      0.49s WALL (       1 calls)
     stress       :      2.01s CPU      2.24s WALL (       1 calls)

     Called by init_run:
     wfcinit      :      1.04s CPU      1.17s WALL (       1 calls)
     potinit      :      0.13s CPU      0.15s WALL (       1 calls)
     hinit0       :      0.17s CPU      0.17s WALL (       1 calls)

     Called by electrons:
     c_bands      :     49.44s CPU     56.56s WALL (      20 calls)
     sum_band     :      8.97s CPU     11.48s WALL (      20 calls)
     v_of_rho     :      0.96s CPU      1.18s WALL (      21 calls)
     newd         :      2.99s CPU      4.71s WALL (      21 calls)
     PAW_pot      :      2.10s CPU      3.12s WALL (      21 calls)
     mix_rho      :      0.40s CPU      0.59s WALL (      20 calls)

     Called by c_bands:
     init_us_2    :      0.81s CPU      0.89s WALL (    2408 calls)
     cegterg      :     47.23s CPU     54.14s WALL (    1120 calls)

     Called by *egterg:
     cdiaghg      :      1.90s CPU      2.09s WALL (    4193 calls)
     h_psi        :     34.31s CPU     39.86s WALL (    4249 calls)
     s_psi        :      1.67s CPU      1.79s WALL (    4249 calls)
     g_psi        :      0.08s CPU      0.10s WALL (    3073 calls)

     Called by h_psi:
     h_psi:calbec :      3.50s CPU      3.97s WALL (    4249 calls)
     vloc_psi     :     28.89s CPU     33.81s WALL (    4249 calls)
     add_vuspsi   :      1.69s CPU      1.83s WALL (    4249 calls)

     General routines
     calbec       :      5.17s CPU      5.88s WALL (    6321 calls)
     fft          :      0.72s CPU      0.93s WALL (     296 calls)
     ffts         :      0.02s CPU      0.08s WALL (      41 calls)
     fftw         :     27.87s CPU     32.78s WALL (  121156 calls)
     interpolate  :      0.08s CPU      0.17s WALL (      21 calls)

     Parallel routines

     PWSCF        :   1m 8.94s CPU   1m22.44s WALL


   This run was terminated on:  22: 6:24  31Oct2025            

=------------------------------------------------------------------------------=
   JOB DONE.
=------------------------------------------------------------------------------=
