
     Program PWSCF v.7.4.1 starts on 31Oct2025 at 22: 7:40 

     This program is part of the open-source Quantum ESPRESSO suite
     for quantum simulation of materials; please cite
         "P. Giannozzi et al., J. Phys.:Condens. Matter 21 395502 (2009);
         "P. Giannozzi et al., J. Phys.:Condens. Matter 29 465901 (2017);
         "P. Giannozzi et al., J. Chem. Phys. 152 154105 (2020);
          URL http://www.quantum-espresso.org", 
     in publications or presentations arising from this work. More details at
     http://www.quantum-espresso.org/quote

     Parallel version (MPI), running on     6 processors

     MPI processes distributed on     1 nodes
     506 MiB available memory on the printing compute node when the environment starts

     Reading input from TiFe19.in

     Current dimensions of program PWSCF are:
     Max number of different atomic species (ntypx) = 10
     Max number of k-points (npk) =  40000
     Max angular momentum in pseudopotentials (lmaxx) =  4
     file Fe.pbe-spn-kjpaw_psl.0.2.1.UPF: wavefunction(s)  3D renormalized

     IMPORTANT: XC functional enforced from input :
     Exchange-correlation= PBE
                           (   1   4   3   4   0   0   0)
     Any further DFT definition will be discarded
     Please, verify this is what you really want

     Message from routine setup:
     using ibrav=0 with symmetry is DISCOURAGED, use correct ibrav instead

     R & G space division:  proc/nbgrp/npool/nimage =       6
     Subspace diagonalization in iterative solution of the eigenvalue problem:
     a serial algorithm will be used


     Parallelization info
     --------------------
     sticks:   dense  smooth     PW     G-vecs:    dense   smooth      PW
     Min         485     196     58                19630     4975     800
     Max         487     197     59                19631     4976     801
     Sum        2917    1177    349               117785    29855    4801

     Using Slab Decomposition



     bravais-lattice index     =            0
     lattice parameter (alat)  =       5.1090  a.u.
     unit-cell volume          =     133.3574 (a.u.)^3
     number of atoms/cell      =            2
     number of atomic types    =            2
     number of electrons       =        28.00
     number of Kohn-Sham states=           18
     kinetic-energy cutoff     =     140.0000  Ry
     charge density cutoff     =    1400.0000  Ry
     scf convergence threshold =      1.0E-08
     mixing beta               =       0.7000
     number of iterations used =            8  plain     mixing
     Exchange-correlation= PBE
                           (   1   4   3   4   0   0   0)

     celldm(1)=   5.109036  celldm(2)=   0.000000  celldm(3)=   0.000000
     celldm(4)=   0.000000  celldm(5)=   0.000000  celldm(6)=   0.000000

     crystal axes: (cart. coord. in units of alat)
               a(1) = (   1.000000   0.000000   0.000000 )  
               a(2) = (   0.000000   1.000000   0.000000 )  
               a(3) = (   0.000000   0.000000   1.000000 )  

     reciprocal axes: (cart. coord. in units 2 pi/alat)
               b(1) = (  1.000000  0.000000  0.000000 )  
               b(2) = (  0.000000  1.000000  0.000000 )  
               b(3) = (  0.000000  0.000000  1.000000 )  


     PseudoPot. # 1 for Fe read from file:
     /home/rafi/QE/qe-7.4.1/pseudo/Fe.pbe-spn-kjpaw_psl.0.2.1.UPF
     MD5 check sum: e86618425769142926afa95317d90200
     Pseudo is Projector augmented-wave + core cor, Zval = 16.0
     Generated using "atomic" code by A. Dal Corso  v.5.0.99 svn rev. 10869
     Shape of augmentation charge: PSQ
     Using radial grid of 1191 points,  6 beta functions with: 
                l(1) =   0
                l(2) =   0
                l(3) =   1
                l(4) =   1
                l(5) =   2
                l(6) =   2
     Q(r) pseudized with 0 coefficients 


     PseudoPot. # 2 for Ti read from file:
     /home/rafi/QE/qe-7.4.1/pseudo/ti_pbe_v1.4.uspp.F.UPF
     MD5 check sum: 88a00a6731bd790ddea75d31a80cb452
     Pseudo is Ultrasoft + core correction, Zval = 12.0
     Generated by new atomic code, or converted to UPF format
     Using radial grid of  851 points,  6 beta functions with: 
                l(1) =   0
                l(2) =   0
                l(3) =   1
                l(4) =   1
                l(5) =   2
                l(6) =   2
     Q(r) pseudized with  6 coefficients,  rinner =    1.000   1.000   1.000
                                                       1.000   1.000

     atomic species   valence    mass     pseudopotential
     Fe               16.00    55.84500     Fe( 1.00)
     Ti               12.00    47.86700     Ti( 1.00)

     48 Sym. Ops., with inversion, found



   Cartesian axes

     site n.     atom                  positions (alat units)
         1        Fe     tau(   1) = (   0.5000000   0.5000000   0.5000000  )
         2        Ti     tau(   2) = (   0.0000000   0.0000000   0.0000000  )

     number of k points=    56  Marzari-Vanderbilt smearing, width (Ry)=  0.0050
                       cart. coord. in units 2pi/alat
        k(    1) = (   0.0000000   0.0000000   0.0000000), wk =   0.0020000
        k(    2) = (   0.0000000   0.0000000   0.1000000), wk =   0.0120000
        k(    3) = (   0.0000000   0.0000000   0.2000000), wk =   0.0120000
        k(    4) = (   0.0000000   0.0000000   0.3000000), wk =   0.0120000
        k(    5) = (   0.0000000   0.0000000   0.4000000), wk =   0.0120000
        k(    6) = (   0.0000000   0.0000000  -0.5000000), wk =   0.0060000
        k(    7) = (   0.0000000   0.1000000   0.1000000), wk =   0.0240000
        k(    8) = (   0.0000000   0.1000000   0.2000000), wk =   0.0480000
        k(    9) = (   0.0000000   0.1000000   0.3000000), wk =   0.0480000
        k(   10) = (   0.0000000   0.1000000   0.4000000), wk =   0.0480000
        k(   11) = (   0.0000000   0.1000000  -0.5000000), wk =   0.0240000
        k(   12) = (   0.0000000   0.2000000   0.2000000), wk =   0.0240000
        k(   13) = (   0.0000000   0.2000000   0.3000000), wk =   0.0480000
        k(   14) = (   0.0000000   0.2000000   0.4000000), wk =   0.0480000
        k(   15) = (   0.0000000   0.2000000  -0.5000000), wk =   0.0240000
        k(   16) = (   0.0000000   0.3000000   0.3000000), wk =   0.0240000
        k(   17) = (   0.0000000   0.3000000   0.4000000), wk =   0.0480000
        k(   18) = (   0.0000000   0.3000000  -0.5000000), wk =   0.0240000
        k(   19) = (   0.0000000   0.4000000   0.4000000), wk =   0.0240000
        k(   20) = (   0.0000000   0.4000000  -0.5000000), wk =   0.0240000
        k(   21) = (   0.0000000  -0.5000000  -0.5000000), wk =   0.0060000
        k(   22) = (   0.1000000   0.1000000   0.1000000), wk =   0.0160000
        k(   23) = (   0.1000000   0.1000000   0.2000000), wk =   0.0480000
        k(   24) = (   0.1000000   0.1000000   0.3000000), wk =   0.0480000
        k(   25) = (   0.1000000   0.1000000   0.4000000), wk =   0.0480000
        k(   26) = (   0.1000000   0.1000000  -0.5000000), wk =   0.0240000
        k(   27) = (   0.1000000   0.2000000   0.2000000), wk =   0.0480000
        k(   28) = (   0.1000000   0.2000000   0.3000000), wk =   0.0960000
        k(   29) = (   0.1000000   0.2000000   0.4000000), wk =   0.0960000
        k(   30) = (   0.1000000   0.2000000  -0.5000000), wk =   0.0480000
        k(   31) = (   0.1000000   0.3000000   0.3000000), wk =   0.0480000
        k(   32) = (   0.1000000   0.3000000   0.4000000), wk =   0.0960000
        k(   33) = (   0.1000000   0.3000000  -0.5000000), wk =   0.0480000
        k(   34) = (   0.1000000   0.4000000   0.4000000), wk =   0.0480000
        k(   35) = (   0.1000000   0.4000000  -0.5000000), wk =   0.0480000
        k(   36) = (   0.1000000  -0.5000000  -0.5000000), wk =   0.0120000
        k(   37) = (   0.2000000   0.2000000   0.2000000), wk =   0.0160000
        k(   38) = (   0.2000000   0.2000000   0.3000000), wk =   0.0480000
        k(   39) = (   0.2000000   0.2000000   0.4000000), wk =   0.0480000
        k(   40) = (   0.2000000   0.2000000  -0.5000000), wk =   0.0240000
        k(   41) = (   0.2000000   0.3000000   0.3000000), wk =   0.0480000
        k(   42) = (   0.2000000   0.3000000   0.4000000), wk =   0.0960000
        k(   43) = (   0.2000000   0.3000000  -0.5000000), wk =   0.0480000
        k(   44) = (   0.2000000   0.4000000   0.4000000), wk =   0.0480000
        k(   45) = (   0.2000000   0.4000000  -0.5000000), wk =   0.0480000
        k(   46) = (   0.2000000  -0.5000000  -0.5000000), wk =   0.0120000
        k(   47) = (   0.3000000   0.3000000   0.3000000), wk =   0.0160000
        k(   48) = (   0.3000000   0.3000000   0.4000000), wk =   0.0480000
        k(   49) = (   0.3000000   0.3000000  -0.5000000), wk =   0.0240000
        k(   50) = (   0.3000000   0.4000000   0.4000000), wk =   0.0480000
        k(   51) = (   0.3000000   0.4000000  -0.5000000), wk =   0.0480000
        k(   52) = (   0.3000000  -0.5000000  -0.5000000), wk =   0.0120000
        k(   53) = (   0.4000000   0.4000000   0.4000000), wk =   0.0160000
        k(   54) = (   0.4000000   0.4000000  -0.5000000), wk =   0.0240000
        k(   55) = (   0.4000000  -0.5000000  -0.5000000), wk =   0.0120000
        k(   56) = (  -0.5000000  -0.5000000  -0.5000000), wk =   0.0020000

     Dense  grid:   117785 G-vectors     FFT dimensions: (  64,  64,  64)

     Smooth grid:    29855 G-vectors     FFT dimensions: (  40,  40,  40)

     Estimated max dynamical RAM per process >      88.02 MB

     Estimated total dynamical RAM >     528.09 MB

     Check: negative core charge=   -0.000004

     Initial potential from superposition of free atoms

     starting charge      26.9995, renormalised to      28.0000

     negative rho (up, down):  1.348E-03 0.000E+00
     Starting wfcs are   23 randomized atomic wfcs
     Checking if some PAW data can be deallocated... 

     total cpu time spent up to now is        2.1 secs

     Self-consistent Calculation

     iteration #  1     ecut=   140.00 Ry     beta= 0.70
     Davidson diagonalization with overlap
     ethr =  1.00E-02,  avg # of iterations =  2.1

     negative rho (up, down):  6.333E-05 0.000E+00

     total cpu time spent up to now is        5.1 secs

     total energy              =    -439.00843242 Ry
     estimated scf accuracy    <      12.32159951 Ry

     iteration #  2     ecut=   140.00 Ry     beta= 0.70
     Davidson diagonalization with overlap
     ethr =  1.00E-02,  avg # of iterations =  5.2

     negative rho (up, down):  1.199E-04 0.000E+00

     total cpu time spent up to now is        9.7 secs

     total energy              =    -447.92584262 Ry
     estimated scf accuracy    <      50.18713860 Ry

     iteration #  3     ecut=   140.00 Ry     beta= 0.70
     Davidson diagonalization with overlap
     ethr =  1.00E-02,  avg # of iterations =  2.7

     negative rho (up, down):  3.420E-04 0.000E+00

     total cpu time spent up to now is       13.1 secs

     total energy              =    -448.33519769 Ry
     estimated scf accuracy    <      11.83060376 Ry

     iteration #  4     ecut=   140.00 Ry     beta= 0.70
     Davidson diagonalization with overlap
     ethr =  1.00E-02,  avg # of iterations =  2.1

     negative rho (up, down):  2.440E-04 0.000E+00

     total cpu time spent up to now is       15.6 secs

     total energy              =    -448.80218487 Ry
     estimated scf accuracy    <       2.82108566 Ry

     iteration #  5     ecut=   140.00 Ry     beta= 0.70
     Davidson diagonalization with overlap
     ethr =  1.00E-02,  avg # of iterations =  1.0

     negative rho (up, down):  6.530E-04 0.000E+00

     total cpu time spent up to now is       17.7 secs

     total energy              =    -448.30144539 Ry
     estimated scf accuracy    <       2.43768631 Ry

     iteration #  6     ecut=   140.00 Ry     beta= 0.70
     Davidson diagonalization with overlap
     ethr =  8.71E-03,  avg # of iterations =  1.9

     negative rho (up, down):  7.032E-04 0.000E+00

     total cpu time spent up to now is       20.0 secs

     total energy              =    -448.49504241 Ry
     estimated scf accuracy    <       0.12739197 Ry

     iteration #  7     ecut=   140.00 Ry     beta= 0.70
     Davidson diagonalization with overlap
     ethr =  4.55E-04,  avg # of iterations =  4.0

     negative rho (up, down):  9.427E-04 0.000E+00

     total cpu time spent up to now is       23.1 secs

     total energy              =    -448.47840596 Ry
     estimated scf accuracy    <       0.08182484 Ry

     iteration #  8     ecut=   140.00 Ry     beta= 0.70
     Davidson diagonalization with overlap
     ethr =  2.92E-04,  avg # of iterations =  2.3

     negative rho (up, down):  1.027E-03 0.000E+00

     total cpu time spent up to now is       25.7 secs

     total energy              =    -448.48707686 Ry
     estimated scf accuracy    <       0.00611657 Ry

     iteration #  9     ecut=   140.00 Ry     beta= 0.70
     Davidson diagonalization with overlap
     ethr =  2.18E-05,  avg # of iterations =  5.7

     negative rho (up, down):  9.719E-04 0.000E+00

     total cpu time spent up to now is       29.9 secs

     total energy              =    -448.49099849 Ry
     estimated scf accuracy    <       0.07301671 Ry

     iteration # 10     ecut=   140.00 Ry     beta= 0.70
     Davidson diagonalization with overlap
     ethr =  2.18E-05,  avg # of iterations =  2.8

     negative rho (up, down):  9.544E-04 0.000E+00

     total cpu time spent up to now is       32.8 secs

     total energy              =    -448.49067067 Ry
     estimated scf accuracy    <       0.01902645 Ry

     iteration # 11     ecut=   140.00 Ry     beta= 0.70
     Davidson diagonalization with overlap
     ethr =  2.18E-05,  avg # of iterations =  1.5

     negative rho (up, down):  9.347E-04 0.000E+00

     total cpu time spent up to now is       35.1 secs

     total energy              =    -448.48841084 Ry
     estimated scf accuracy    <       0.01130217 Ry

     iteration # 12     ecut=   140.00 Ry     beta= 0.70
     Davidson diagonalization with overlap
     ethr =  2.18E-05,  avg # of iterations =  3.2

     negative rho (up, down):  9.321E-04 0.000E+00

     total cpu time spent up to now is       37.7 secs

     total energy              =    -448.49027030 Ry
     estimated scf accuracy    <       0.00259757 Ry

     iteration # 13     ecut=   140.00 Ry     beta= 0.70
     Davidson diagonalization with overlap
     ethr =  9.28E-06,  avg # of iterations =  1.1

     negative rho (up, down):  9.344E-04 0.000E+00

     total cpu time spent up to now is       40.0 secs

     total energy              =    -448.49030182 Ry
     estimated scf accuracy    <       0.00416596 Ry

     iteration # 14     ecut=   140.00 Ry     beta= 0.70
     Davidson diagonalization with overlap
     ethr =  9.28E-06,  avg # of iterations =  1.0

     negative rho (up, down):  9.463E-04 0.000E+00

     total cpu time spent up to now is       42.4 secs

     total energy              =    -448.48993408 Ry
     estimated scf accuracy    <       0.00414174 Ry

     iteration # 15     ecut=   140.00 Ry     beta= 0.70
     Davidson diagonalization with overlap
     ethr =  9.28E-06,  avg # of iterations =  1.2

     negative rho (up, down):  9.561E-04 0.000E+00

     total cpu time spent up to now is       44.6 secs

     total energy              =    -448.48980623 Ry
     estimated scf accuracy    <       0.00110958 Ry

     iteration # 16     ecut=   140.00 Ry     beta= 0.70
     Davidson diagonalization with overlap
     ethr =  3.96E-06,  avg # of iterations =  2.3

     negative rho (up, down):  9.525E-04 0.000E+00

     total cpu time spent up to now is       47.3 secs

     total energy              =    -448.48994454 Ry
     estimated scf accuracy    <       0.00010274 Ry

     iteration # 17     ecut=   140.00 Ry     beta= 0.70
     Davidson diagonalization with overlap
     ethr =  3.67E-07,  avg # of iterations =  2.3

     negative rho (up, down):  9.501E-04 0.000E+00

     total cpu time spent up to now is       49.7 secs

     total energy              =    -448.48994511 Ry
     estimated scf accuracy    <       0.00004754 Ry

     iteration # 18     ecut=   140.00 Ry     beta= 0.70
     Davidson diagonalization with overlap
     ethr =  1.70E-07,  avg # of iterations =  1.0

     negative rho (up, down):  9.480E-04 0.000E+00

     total cpu time spent up to now is       52.3 secs

     total energy              =    -448.48994422 Ry
     estimated scf accuracy    <       0.00001059 Ry

     iteration # 19     ecut=   140.00 Ry     beta= 0.70
     Davidson diagonalization with overlap
     ethr =  3.78E-08,  avg # of iterations =  2.3

     negative rho (up, down):  9.467E-04 0.000E+00

     total cpu time spent up to now is       56.2 secs

     total energy              =    -448.48994499 Ry
     estimated scf accuracy    <       0.00000109 Ry

     iteration # 20     ecut=   140.00 Ry     beta= 0.70
     Davidson diagonalization with overlap
     ethr =  3.88E-09,  avg # of iterations =  3.2

     negative rho (up, down):  9.470E-04 0.000E+00

     total cpu time spent up to now is       59.8 secs

     total energy              =    -448.48994513 Ry
     estimated scf accuracy    <       0.00000013 Ry

     iteration # 21     ecut=   140.00 Ry     beta= 0.70
     Davidson diagonalization with overlap
     ethr =  4.60E-10,  avg # of iterations =  4.0

     negative rho (up, down):  9.471E-04 0.000E+00

     total cpu time spent up to now is       64.1 secs

     total energy              =    -448.48994515 Ry
     estimated scf accuracy    <       0.00000012 Ry

     iteration # 22     ecut=   140.00 Ry     beta= 0.70
     Davidson diagonalization with overlap
     ethr =  4.20E-10,  avg # of iterations =  2.0

     negative rho (up, down):  9.470E-04 0.000E+00

     total cpu time spent up to now is       68.9 secs

     End of self-consistent calculation

          k = 0.0000 0.0000 0.0000 (  3743 PWs)   bands (ev):

   -63.6931 -32.9623 -29.7664 -29.7664 -29.7664  -8.9174  -8.9174  -8.9174
    15.2853  18.0162  18.0162  22.0013  22.0013  22.0013  25.1463  25.1463
    27.8615  27.8615

          k = 0.0000 0.0000 0.1000 (  3759 PWs)   bands (ev):

   -63.6919 -32.9597 -29.7695 -29.7649 -29.7649  -9.0010  -8.9139  -8.9139
    15.5517  18.1479  18.2033  21.9835  21.9835  22.0647  24.9499  25.2254
    27.4343  27.4343

          k = 0.0000 0.0000 0.2000 (  3759 PWs)   bands (ev):

   -63.6889 -32.9529 -29.7770 -29.7611 -29.7611  -9.2161  -8.9048  -8.9048
    16.3023  18.5332  18.6957  21.9498  21.9498  22.2406  24.3930  25.4162
    26.4916  26.4916

          k = 0.0000 0.0000 0.3000 (  3731 PWs)   bands (ev):

   -63.6850 -32.9451 -29.7854 -29.7563 -29.7563  -9.4748  -8.8936  -8.8936
    17.3973  19.1362  19.2906  21.9411  21.9411  22.4818  23.5746  25.5145
    25.5145  25.5426

          k = 0.0000 0.0000 0.4000 (  3744 PWs)   bands (ev):

   -63.6819 -32.9392 -29.7914 -29.7524 -29.7524  -9.6787  -8.8845  -8.8845
    18.5873  19.6737  19.8562  21.9738  21.9738  22.6783  22.7030  24.7922
    24.7922  25.3445

          k = 0.0000 0.0000-0.5000 (  3764 PWs)   bands (ev):

   -63.6808 -32.9370 -29.7935 -29.7510 -29.7510  -9.7553  -8.8811  -8.8811
    19.3855  19.5608  20.2966  22.0009  22.0009  22.1701  22.7956  24.5204
    24.5204  25.1071

          k = 0.0000 0.1000 0.1000 (  3771 PWs)   bands (ev):

   -63.6908 -32.9557 -29.7778 -29.7635 -29.7601  -9.0087  -8.9835  -8.9100
    15.8078  18.2947  18.3668  21.8325  21.9512  22.2389  24.9312  25.1728
    26.9717  27.0172

          k = 0.0000 0.1000 0.2000 (  3748 PWs)   bands (ev):

   -63.6877 -32.9455 -29.7888 -29.7597 -29.7576  -9.2093  -8.9814  -8.8997
    16.5249  18.6546  18.8553  21.7005  21.8815  22.4299  24.5177  25.3424
    26.1263  26.1784

          k = 0.0000 0.1000 0.3000 (  3738 PWs)   bands (ev):

   -63.6839 -32.9335 -29.7971 -29.7589 -29.7551  -9.4626  -8.9665  -8.8870
    17.5547  19.1807  19.4647  21.6569  21.8178  22.5176  23.8462  25.1364
    25.4974  25.6656

          k = 0.0000 0.1000 0.4000 (  3717 PWs)   bands (ev):

   -63.6808 -32.9241 -29.8010 -29.7622 -29.7513  -9.6626  -8.9542  -8.8766
    18.6430  19.6339  20.0038  21.7215  21.7441  22.4205  23.1936  24.5330
    25.1594  25.6476

          k = 0.0000 0.1000-0.5000 (  3726 PWs)   bands (ev):

   -63.6796 -32.9207 -29.8017 -29.7639 -29.7498  -9.7378  -8.9495  -8.8727
    19.3314  19.5768  20.3339  21.6415  21.8023  22.3004  22.9409  24.2963
    25.0912  25.5316

          k = 0.0000 0.2000 0.2000 (  3738 PWs)   bands (ev):

   -63.6847 -32.9264 -29.8076 -29.7602 -29.7562  -9.2172  -9.1526  -8.8862
    17.1260  18.9003  19.3630  21.3982  21.7639  22.5004  24.6708  25.2716
    25.3777  25.7680

          k = 0.0000 0.2000 0.3000 (  3733 PWs)   bands (ev):

   -63.6809 -32.9030 -29.8218 -29.7719 -29.7518  -9.4316  -9.1533  -8.8695
    17.9130  19.1799  20.0447  21.2152  21.7387  22.2489  24.3812  24.7548
    25.5618  25.6990

          k = 0.0000 0.2000 0.4000 (  3715 PWs)   bands (ev):

   -63.6779 -32.8843 -29.8258 -29.7882 -29.7482  -9.6203  -9.1337  -8.8559
    18.6058  19.3604  20.6180  21.2090  21.8237  21.9072  23.9747  24.3913
    25.9122  25.9242

          k = 0.0000 0.2000-0.5000 (  3732 PWs)   bands (ev):

   -63.6767 -32.8773 -29.8238 -29.7979 -29.7469  -9.6917  -9.1258  -8.8507
    18.9170  19.3709  20.8333  21.3342  21.5245  22.0768  23.9173  24.1246
    26.0721  26.0924

          k = 0.0000 0.3000 0.3000 (  3736 PWs)   bands (ev):

   -63.6772 -32.8650 -29.8446 -29.7955 -29.7477  -9.4175  -9.3541  -8.8478
    18.2079  19.1274  20.8495  20.8801  21.7177  22.0033  24.6004  24.8560
    25.4477  26.1648

          k = 0.0000 0.3000 0.4000 (  3730 PWs)   bands (ev):

   -63.6742 -32.8341 -29.8549 -29.8227 -29.7444  -9.5682  -9.3499  -8.8301
    18.3189  19.0407  20.7457  21.2006  21.5523  22.6549  24.4331  24.8882
    25.8788  26.6860

          k = 0.0000 0.3000-0.5000 (  3730 PWs)   bands (ev):

   -63.6731 -32.8223 -29.8524 -29.8396 -29.7432  -9.6345  -9.3386  -8.8234
    18.3382  18.9932  20.8286  20.8810  21.8053  23.2499  24.0820  24.8630
    26.2935  26.9848

          k = 0.0000 0.4000 0.4000 (  3720 PWs)   bands (ev):

   -63.6713 -32.7927 -29.8746 -29.8551 -29.7414  -9.5353  -9.5114  -8.8092
    18.0189  18.7934  20.4778  20.7177  22.5476  23.4487  24.9190  25.4963
    25.5702  27.3066

          k = 0.0000 0.4000-0.5000 (  3712 PWs)   bands (ev):

   -63.6702 -32.7767 -29.8765 -29.8732 -29.7402  -9.5881  -9.5069  -8.8012
    17.9000  18.7016  20.4610  20.4692  22.9562  24.1157  24.6309  25.5709
    25.9342  27.6291

          k = 0.0000-0.5000-0.5000 (  3724 PWs)   bands (ev):

   -63.6690 -32.7590 -29.8860 -29.8860 -29.7391  -9.5703  -9.5703  -8.7926
    17.7406  18.5965  20.3282  20.3282  23.5972  24.2378  25.4562  25.4562
    25.7578  27.8629

          k = 0.1000 0.1000 0.1000 (  3767 PWs)   bands (ev):

   -63.6896 -32.9506 -29.7763 -29.7763 -29.7524  -9.0127  -8.9800  -8.9800
    16.0565  18.4824  18.4824  21.7948  21.7948  22.3766  25.0342  25.0342
    26.3093  27.4020

          k = 0.1000 0.1000 0.2000 (  3735 PWs)   bands (ev):

   -63.6865 -32.9375 -29.7916 -29.7722 -29.7501  -9.2019  -8.9810  -8.9708
    16.7484  18.8173  18.9714  21.6152  21.6985  22.4804  24.6404  25.2774
    25.6534  26.4639

          k = 0.1000 0.1000 0.3000 (  3741 PWs)   bands (ev):

   -63.6828 -32.9218 -29.8031 -29.7672 -29.7538  -9.4509  -8.9604  -8.9594
    17.7277  19.3286  19.5363  21.5709  21.5741  22.3738  24.0745  25.1403
    25.5206  25.7032

          k = 0.1000 0.1000 0.4000 (  3723 PWs)   bands (ev):

   -63.6797 -32.9095 -29.8082 -29.7632 -29.7603  -9.6476  -8.9502  -8.9433
    18.7386  19.8202  19.9103  21.4018  21.7388  22.1762  23.5272  24.8089
    24.8513  26.0642

          k = 0.1000 0.1000-0.5000 (  3726 PWs)   bands (ev):

   -63.6785 -32.9049 -29.8090 -29.7638 -29.7617  -9.7216  -8.9467  -8.9367
    19.3815  19.6546  20.2438  21.2575  21.9744  22.0455  23.2920  24.5655
    24.6080  26.3031

          k = 0.1000 0.2000 0.2000 (  3731 PWs)   bands (ev):

   -63.6835 -32.9167 -29.8059 -29.7768 -29.7512  -9.2061  -9.1491  -8.9610
    17.3505  19.1004  19.4303  21.3396  21.5466  22.3058  24.8043  25.2332
    25.4146  26.0535

          k = 0.1000 0.2000 0.3000 (  3733 PWs)   bands (ev):

   -63.6798 -32.8912 -29.8215 -29.7791 -29.7575  -9.4209  -9.1471  -8.9425
    18.1279  19.3908  20.0517  21.1530  21.4977  21.9207  24.5770  25.0131
    25.5044  25.9430

          k = 0.1000 0.2000 0.4000 (  3718 PWs)   bands (ev):

   -63.6768 -32.8708 -29.8284 -29.7892 -29.7596  -9.6085  -9.1275  -8.9270
    18.7900  19.5697  20.4419  21.0888  21.6194  21.8090  24.2402  24.5299
    25.3089  26.6914

          k = 0.1000 0.2000-0.5000 (  3734 PWs)   bands (ev):

   -63.6756 -32.8630 -29.8286 -29.7964 -29.7594  -9.6793  -9.1199  -8.9209
    19.0898  19.5480  20.5316  21.0871  21.5646  22.1095  24.1288  24.2441
    25.1215  27.2876

          k = 0.1000 0.3000 0.3000 (  3714 PWs)   bands (ev):

   -63.6761 -32.8531 -29.8427 -29.7994 -29.7581  -9.4059  -9.3509  -8.9207
    18.4469  19.3466  20.7639  20.9073  21.4045  21.7312  24.7369  25.0474
    25.4019  26.5478

          k = 0.1000 0.3000 0.4000 (  3726 PWs)   bands (ev):

   -63.6731 -32.8220 -29.8540 -29.8238 -29.7563  -9.5602  -9.3452  -8.9027
    18.5347  19.2544  20.6803  20.9710  21.5675  22.3892  24.4646  25.0356
    25.4860  27.3466

          k = 0.1000 0.3000-0.5000 (  3720 PWs)   bands (ev):

   -63.6720 -32.8101 -29.8540 -29.8378 -29.7554  -9.6268  -9.3344  -8.8958
    18.5369  19.2008  20.7187  20.7573  21.7774  23.0080  24.1243  25.0396
    25.4228  27.5067

          k = 0.1000 0.4000 0.4000 (  3732 PWs)   bands (ev):

   -63.6702 -32.7818 -29.8724 -29.8550 -29.7534  -9.5296  -9.5088  -8.8829
    18.2328  19.0110  20.4451  20.6440  22.4673  23.1936  24.6311  25.2159
    25.6113  27.6473

          k = 0.1000 0.4000-0.5000 (  3726 PWs)   bands (ev):

   -63.6691 -32.7663 -29.8754 -29.8711 -29.7522  -9.5842  -9.5040  -8.8752
    18.1117  18.9203  20.4272  20.4314  22.8624  24.1134  24.1160  25.1923
    25.7124  27.7999

          k = 0.1000-0.5000-0.5000 (  3720 PWs)   bands (ev):

   -63.6680 -32.7493 -29.8838 -29.8838 -29.7509  -9.5679  -9.5679  -8.8674
    17.9570  18.8188  20.3069  20.3069  23.6030  24.2356  24.6570  24.6570
    25.8961  28.8018

          k = 0.2000 0.2000 0.2000 (  3737 PWs)   bands (ev):

   -63.6805 -32.8915 -29.8014 -29.8014 -29.7569  -9.1902  -9.1400  -9.1400
    17.9482  19.6157  19.6157  21.1933  21.1933  21.7578  25.1162  25.1162
    25.8223  26.4197

          k = 0.2000 0.2000 0.3000 (  3719 PWs)   bands (ev):

   -63.6768 -32.8603 -29.8240 -29.7959 -29.7716  -9.3937  -9.1321  -9.1288
    18.6685  19.8679  20.1276  21.0236  21.0581  21.3049  24.9348  25.2453
    25.5433  26.4981

          k = 0.2000 0.2000 0.4000 (  3732 PWs)   bands (ev):

   -63.6739 -32.8350 -29.8377 -29.7914 -29.7877  -9.5775  -9.1197  -9.1020
    19.1613  20.0128  20.1002  20.8886  21.3293  21.5934  24.7524  24.7903
    24.9559  27.1688

          k = 0.2000 0.2000-0.5000 (  3752 PWs)   bands (ev):

   -63.6727 -32.8254 -29.8416 -29.7951 -29.7896  -9.6469  -9.1162  -9.0903
    19.3586  19.7864  20.2004  20.8336  21.4668  22.0653  24.3584  24.6726
    24.7525  27.3345

          k = 0.2000 0.3000 0.3000 (  3735 PWs)   bands (ev):

   -63.6732 -32.8217 -29.8376 -29.8108 -29.7842  -9.3756  -9.3428  -9.1086
    19.1146  19.9101  20.6124  20.7960  20.9023  21.1315  24.8870  25.2020
    25.6303  26.7278

          k = 0.2000 0.3000 0.4000 (  3731 PWs)   bands (ev):

   -63.6703 -32.7902 -29.8528 -29.8258 -29.7874  -9.5395  -9.3327  -9.0897
    19.1184  19.7505  20.4756  20.6911  21.4211  21.8097  24.5305  24.8871
    25.6016  27.2090

          k = 0.2000 0.3000-0.5000 (  3730 PWs)   bands (ev):

   -63.6691 -32.7781 -29.8583 -29.8331 -29.7873  -9.6067  -9.3235  -9.0822
    19.0602  19.6580  20.4154  20.6651  21.5945  22.4525  24.1635  24.7117
    25.5570  27.4718

          k = 0.2000 0.4000 0.4000 (  3739 PWs)   bands (ev):

   -63.6674 -32.7533 -29.8668 -29.8546 -29.7847  -9.5144  -9.5020  -9.0728
    18.8277  19.5471  20.3769  20.5242  22.1863  22.4255  24.4139  24.5849
    26.0574  27.5608

          k = 0.2000 0.4000-0.5000 (  3726 PWs)   bands (ev):

   -63.6662 -32.7390 -29.8724 -29.8656 -29.7835  -9.5742  -9.4965  -9.0662
    18.7039  19.4659  20.3463  20.3926  22.4777  23.1134  24.0308  24.4608
    26.1572  27.8489

          k = 0.2000-0.5000-0.5000 (  3732 PWs)   bands (ev):

   -63.6651 -32.7239 -29.8780 -29.8780 -29.7820  -9.5617  -9.5617  -9.0601
    18.5698  19.3939  20.2707  20.2707  23.4080  23.4080  23.6181  24.2044
    26.3238  28.1890

          k = 0.3000 0.3000 0.3000 (  3728 PWs)   bands (ev):

   -63.6696 -32.7824 -29.8312 -29.8312 -29.8102  -9.3404  -9.3327  -9.3327
    19.9201  20.2381  20.4595  20.4595  20.8491  20.8491  24.8381  24.8381
    26.4113  26.4113

          k = 0.3000 0.3000 0.4000 (  3728 PWs)   bands (ev):

   -63.6667 -32.7503 -29.8544 -29.8261 -29.8248  -9.5144  -9.3246  -9.3073
    19.6686  20.0351  20.3600  20.7652  21.1331  21.4775  24.4304  24.5363
    26.3139  27.2107

          k = 0.3000 0.3000-0.5000 (  3734 PWs)   bands (ev):

   -63.6656 -32.7379 -29.8640 -29.8296 -29.8242  -9.5819  -9.3214  -9.2956
    19.5203  19.9133  20.3293  20.7209  21.3932  22.0414  24.0424  24.4307
    26.2930  27.5706

          k = 0.3000 0.4000 0.4000 (  3712 PWs)   bands (ev):

   -63.6638 -32.7176 -29.8599 -29.8543 -29.8232  -9.4957  -9.4936  -9.3019
    19.5811  20.0555  20.3451  20.6774  21.5856  21.6908  24.1649  24.2700
    26.7973  27.5875

          k = 0.3000 0.4000-0.5000 (  3724 PWs)   bands (ev):

   -63.6628 -32.7050 -29.8689 -29.8588 -29.8220  -9.5618  -9.4872  -9.2966
    19.5076  19.9832  20.3575  20.5209  21.8048  22.1556  23.8594  24.1941
    26.8826  27.9199

          k = 0.3000-0.5000-0.5000 (  3716 PWs)   bands (ev):

   -63.6617 -32.6923 -29.8708 -29.8708 -29.8202  -9.5541  -9.5541  -9.2925
    19.4588  20.0810  20.2887  20.2887  22.2916  22.2916  23.6369  24.0814
    27.0388  28.2285

          k = 0.4000 0.4000 0.4000 (  3725 PWs)   bands (ev):

   -63.6610 -32.6884 -29.8543 -29.8543 -29.8542  -9.4868  -9.4868  -9.4769
    19.9059  20.4274  20.4274  21.1395  21.1395  21.2063  23.9865  23.9865
    27.6322  27.6322

          k = 0.4000 0.4000-0.5000 (  3712 PWs)   bands (ev):

   -63.6599 -32.6772 -29.8660 -29.8542 -29.8521  -9.5518  -9.4842  -9.4743
    20.0717  20.2285  20.6233  20.7612  21.2936  21.5200  23.7614  23.9410
    27.6514  28.0394

          k = 0.4000-0.5000-0.5000 (  3724 PWs)   bands (ev):

   -63.6588 -32.6666 -29.8650 -29.8650 -29.8510  -9.5479  -9.5479  -9.4763
    20.3701  20.4429  20.4429  20.6060  21.4151  21.4151  23.6521  23.8332
    27.8634  28.2607

          k =-0.5000-0.5000-0.5000 (  3648 PWs)   bands (ev):

   -63.6578 -32.6567 -29.8628 -29.8628 -29.8628  -9.5456  -9.5456  -9.5456
    20.7969  20.7969  20.7969  20.8099  20.8099  20.8099  23.6580  23.6580
    28.2730  28.2730

     the Fermi energy is    23.4706 ev

!    total energy              =    -448.48994516 Ry
     estimated scf accuracy    <          8.2E-10 Ry
     smearing contrib. (-TS)   =      -0.00001793 Ry
     internal energy E=F+TS    =    -448.48992723 Ry

     The total energy is F=E-TS. E is the sum of the following terms:
     one-electron contribution =    -117.01834994 Ry
     hartree contribution      =      80.51496273 Ry
     xc contribution           =     -53.41386380 Ry
     ewald contribution        =    -282.41380736 Ry
     one-center paw contrib.   =     -76.15886886 Ry

     convergence has been achieved in  22 iterations

     negative rho (up, down):  9.470E-04 0.000E+00

     Forces acting on atoms (cartesian axes, Ry/au):

     atom    1 type  1   force =     0.00000000    0.00000000    0.00000000
     atom    2 type  2   force =     0.00000000    0.00000000    0.00000000

     Total force =     0.000000     Total SCF correction =     0.000000


     Computing stress (Cartesian axis) and pressure


     negative rho (up, down):  9.470E-04 0.000E+00
          total   stress  (Ry/bohr**3)                   (kbar)     P=      883.39
   0.00600519   0.00000000   0.00000000          883.39        0.00        0.00
   0.00000000   0.00600519   0.00000000            0.00      883.39        0.00
   0.00000000   0.00000000   0.00600519            0.00        0.00      883.39


     Writing all to output data dir ./out/TiFe19.save/ :
     XML data file, charge density, pseudopotentials, collected wavefunctions

     init_run     :      1.54s CPU      1.81s WALL (       1 calls)
     electrons    :     57.44s CPU     66.89s WALL (       1 calls)
     forces       :      0.60s CPU      0.91s WALL (       1 calls)
     stress       :      2.09s CPU      2.48s WALL (       1 calls)

     Called by init_run:
     wfcinit      :      0.86s CPU      1.01s WALL (       1 calls)
     potinit      :      0.14s CPU      0.17s WALL (       1 calls)
     hinit0       :      0.18s CPU      0.20s WALL (       1 calls)

     Called by electrons:
     c_bands      :     42.74s CPU     48.07s WALL (      22 calls)
     sum_band     :      8.91s CPU     11.26s WALL (      22 calls)
     v_of_rho     :      0.87s CPU      0.95s WALL (      23 calls)
     newd         :      2.86s CPU      4.31s WALL (      23 calls)
     PAW_pot      :      2.06s CPU      2.35s WALL (      23 calls)
     mix_rho      :      0.13s CPU      0.14s WALL (      22 calls)

     Called by c_bands:
     init_us_2    :      0.78s CPU      0.85s WALL (    2632 calls)
     cegterg      :     40.92s CPU     46.09s WALL (    1232 calls)

     Called by *egterg:
     cdiaghg      :      1.87s CPU      2.00s WALL (    4317 calls)
     h_psi        :     29.37s CPU     33.74s WALL (    4373 calls)
     s_psi        :      1.67s CPU      1.77s WALL (    4373 calls)
     g_psi        :      0.08s CPU      0.09s WALL (    3085 calls)

     Called by h_psi:
     h_psi:calbec :      2.77s CPU      3.16s WALL (    4373 calls)
     vloc_psi     :     24.70s CPU     28.56s WALL (    4373 calls)
     add_vuspsi   :      1.68s CPU      1.79s WALL (    4373 calls)

     General routines
     calbec       :      4.66s CPU      5.54s WALL (    6557 calls)
     fft          :      0.59s CPU      0.67s WALL (     322 calls)
     ffts         :      0.01s CPU      0.01s WALL (      45 calls)
     fftw         :     23.97s CPU     27.96s WALL (  131668 calls)
     interpolate  :      0.04s CPU      0.05s WALL (      23 calls)

     Parallel routines

     PWSCF        :   1m 1.92s CPU   1m12.46s WALL


   This run was terminated on:  22: 8:52  31Oct2025            

=------------------------------------------------------------------------------=
   JOB DONE.
=------------------------------------------------------------------------------=
