
     Program PWSCF v.7.4 starts on  5Nov2025 at 12:40:19 

     This program is part of the open-source Quantum ESPRESSO suite
     for quantum simulation of materials; please cite
         "P. Giannozzi et al., J. Phys.:Condens. Matter 21 395502 (2009);
         "P. Giannozzi et al., J. Phys.:Condens. Matter 29 465901 (2017);
         "P. Giannozzi et al., J. Chem. Phys. 152 154105 (2020);
          URL http://www.quantum-espresso.org", 
     in publications or presentations arising from this work. More details at
     http://www.quantum-espresso.org/quote

     Parallel version (MPI & OpenMP), running on       8 processor cores
     Number of MPI processes:                 8
     Threads/MPI process:                     1

     MPI processes distributed on     1 nodes
     178417 MiB available memory on the printing compute node when the environment starts

     Reading input from TiFe_modified.in

     Current dimensions of program PWSCF are:
     Max number of different atomic species (ntypx) = 10
     Max number of k-points (npk) =  40000
     Max angular momentum in pseudopotentials (lmaxx) =  4

     File ./outputs/TiFe.update deleted, as requested
     file Fe.pbe-spn-kjpaw_psl.0.2.1.UPF: wavefunction(s)  3D renormalized

     IMPORTANT: XC functional enforced from input :
     Exchange-correlation= PBE
                           (   1   4   3   4   0   0   0)
     Any further DFT definition will be discarded
     Please, verify this is what you really want

     Message from routine setup:
     using ibrav=0 with symmetry is DISCOURAGED, use correct ibrav instead

     R & G space division:  proc/nbgrp/npool/nimage =       8
     Subspace diagonalization in iterative solution of the eigenvalue problem:
     a serial algorithm will be used


     Parallelization info
     --------------------
     sticks:   dense  smooth     PW     G-vecs:    dense   smooth      PW
     Min         343     171     50                13547     4799     752
     Max         344     172     51                13550     4802     755
     Sum        2749    1369    401               108383    38401    6031

     Using Slab Decomposition



     bravais-lattice index     =            0
     lattice parameter (alat)  =       5.5533  a.u.
     unit-cell volume          =     171.2590 (a.u.)^3
     number of atoms/cell      =            2
     number of atomic types    =            2
     number of electrons       =        28.00
     number of Kohn-Sham states=           18
     kinetic-energy cutoff     =     140.0000  Ry
     charge density cutoff     =    1120.0000  Ry
     scf convergence threshold =      1.0E-08
     mixing beta               =       0.7000
     number of iterations used =            8  plain     mixing
     energy convergence thresh.=      1.0E-04
     force convergence thresh. =      1.0E-03
     press convergence thresh. =      5.0E-01
     Exchange-correlation= PBE
                           (   1   4   3   4   0   0   0)
     nstep                     =           50


     celldm(1)=   5.553300  celldm(2)=   0.000000  celldm(3)=   0.000000
     celldm(4)=   0.000000  celldm(5)=   0.000000  celldm(6)=   0.000000

     crystal axes: (cart. coord. in units of alat)
               a(1) = (   1.000000   0.000000   0.000000 )  
               a(2) = (   0.000000   1.000000   0.000000 )  
               a(3) = (   0.000000   0.000000   1.000000 )  

     reciprocal axes: (cart. coord. in units 2 pi/alat)
               b(1) = (  1.000000  0.000000  0.000000 )  
               b(2) = (  0.000000  1.000000  0.000000 )  
               b(3) = (  0.000000  0.000000  1.000000 )  


     PseudoPot. # 1 for Ti read from file:
     /vscmnt/antwerpen_storage_home/_user_antwerpen/211/vsc21140/pseudos/ti_pbe_v1.4.uspp.F.UPF
     MD5 check sum: 88a00a6731bd790ddea75d31a80cb452
     Pseudo is Ultrasoft + core correction, Zval = 12.0
     Generated by new atomic code, or converted to UPF format
     Using radial grid of  851 points,  6 beta functions with: 
                l(1) =   0
                l(2) =   0
                l(3) =   1
                l(4) =   1
                l(5) =   2
                l(6) =   2
     Q(r) pseudized with  6 coefficients,  rinner =    1.000   1.000   1.000
                                                       1.000   1.000

     PseudoPot. # 2 for Fe read from file:
     /vscmnt/antwerpen_storage_home/_user_antwerpen/211/vsc21140/pseudos/Fe.pbe-spn-kjpaw_psl.0.2.1.UPF
     MD5 check sum: e86618425769142926afa95317d90200
     Pseudo is Projector augmented-wave + core cor, Zval = 16.0
     Generated using "atomic" code by A. Dal Corso  v.5.0.99 svn rev. 10869
     Shape of augmentation charge: PSQ
     Using radial grid of 1191 points,  6 beta functions with: 
                l(1) =   0
                l(2) =   0
                l(3) =   1
                l(4) =   1
                l(5) =   2
                l(6) =   2
     Q(r) pseudized with 0 coefficients 


     atomic species   valence    mass     pseudopotential
     Ti               12.00    47.86700     Ti( 1.00)
     Fe               16.00    55.84500     Fe( 1.00)

     48 Sym. Ops., with inversion, found



   Cartesian axes

     site n.     atom                  positions (alat units)
         1        Fe     tau(   1) = (   0.5000000   0.5000000   0.5000000  )
         2        Ti     tau(   2) = (   0.0000000   0.0000000   0.0000000  )

     number of k points=    56  Marzari-Vanderbilt smearing, width (Ry)=  0.0050
                       cart. coord. in units 2pi/alat
        k(    1) = (   0.0000000   0.0000000   0.0000000), wk =   0.0015026
        k(    2) = (   0.0000000   0.0000000   0.0909091), wk =   0.0090158
        k(    3) = (   0.0000000   0.0000000   0.1818182), wk =   0.0090158
        k(    4) = (   0.0000000   0.0000000   0.2727273), wk =   0.0090158
        k(    5) = (   0.0000000   0.0000000   0.3636364), wk =   0.0090158
        k(    6) = (   0.0000000   0.0000000   0.4545455), wk =   0.0090158
        k(    7) = (   0.0000000   0.0909091   0.0909091), wk =   0.0180316
        k(    8) = (   0.0000000   0.0909091   0.1818182), wk =   0.0360631
        k(    9) = (   0.0000000   0.0909091   0.2727273), wk =   0.0360631
        k(   10) = (   0.0000000   0.0909091   0.3636364), wk =   0.0360631
        k(   11) = (   0.0000000   0.0909091   0.4545455), wk =   0.0360631
        k(   12) = (   0.0000000   0.1818182   0.1818182), wk =   0.0180316
        k(   13) = (   0.0000000   0.1818182   0.2727273), wk =   0.0360631
        k(   14) = (   0.0000000   0.1818182   0.3636364), wk =   0.0360631
        k(   15) = (   0.0000000   0.1818182   0.4545455), wk =   0.0360631
        k(   16) = (   0.0000000   0.2727273   0.2727273), wk =   0.0180316
        k(   17) = (   0.0000000   0.2727273   0.3636364), wk =   0.0360631
        k(   18) = (   0.0000000   0.2727273   0.4545455), wk =   0.0360631
        k(   19) = (   0.0000000   0.3636364   0.3636364), wk =   0.0180316
        k(   20) = (   0.0000000   0.3636364   0.4545455), wk =   0.0360631
        k(   21) = (   0.0000000   0.4545455   0.4545455), wk =   0.0180316
        k(   22) = (   0.0909091   0.0909091   0.0909091), wk =   0.0120210
        k(   23) = (   0.0909091   0.0909091   0.1818182), wk =   0.0360631
        k(   24) = (   0.0909091   0.0909091   0.2727273), wk =   0.0360631
        k(   25) = (   0.0909091   0.0909091   0.3636364), wk =   0.0360631
        k(   26) = (   0.0909091   0.0909091   0.4545455), wk =   0.0360631
        k(   27) = (   0.0909091   0.1818182   0.1818182), wk =   0.0360631
        k(   28) = (   0.0909091   0.1818182   0.2727273), wk =   0.0721262
        k(   29) = (   0.0909091   0.1818182   0.3636364), wk =   0.0721262
        k(   30) = (   0.0909091   0.1818182   0.4545455), wk =   0.0721262
        k(   31) = (   0.0909091   0.2727273   0.2727273), wk =   0.0360631
        k(   32) = (   0.0909091   0.2727273   0.3636364), wk =   0.0721262
        k(   33) = (   0.0909091   0.2727273   0.4545455), wk =   0.0721262
        k(   34) = (   0.0909091   0.3636364   0.3636364), wk =   0.0360631
        k(   35) = (   0.0909091   0.3636364   0.4545455), wk =   0.0721262
        k(   36) = (   0.0909091   0.4545455   0.4545455), wk =   0.0360631
        k(   37) = (   0.1818182   0.1818182   0.1818182), wk =   0.0120210
        k(   38) = (   0.1818182   0.1818182   0.2727273), wk =   0.0360631
        k(   39) = (   0.1818182   0.1818182   0.3636364), wk =   0.0360631
        k(   40) = (   0.1818182   0.1818182   0.4545455), wk =   0.0360631
        k(   41) = (   0.1818182   0.2727273   0.2727273), wk =   0.0360631
        k(   42) = (   0.1818182   0.2727273   0.3636364), wk =   0.0721262
        k(   43) = (   0.1818182   0.2727273   0.4545455), wk =   0.0721262
        k(   44) = (   0.1818182   0.3636364   0.3636364), wk =   0.0360631
        k(   45) = (   0.1818182   0.3636364   0.4545455), wk =   0.0721262
        k(   46) = (   0.1818182   0.4545455   0.4545455), wk =   0.0360631
        k(   47) = (   0.2727273   0.2727273   0.2727273), wk =   0.0120210
        k(   48) = (   0.2727273   0.2727273   0.3636364), wk =   0.0360631
        k(   49) = (   0.2727273   0.2727273   0.4545455), wk =   0.0360631
        k(   50) = (   0.2727273   0.3636364   0.3636364), wk =   0.0360631
        k(   51) = (   0.2727273   0.3636364   0.4545455), wk =   0.0721262
        k(   52) = (   0.2727273   0.4545455   0.4545455), wk =   0.0360631
        k(   53) = (   0.3636364   0.3636364   0.3636364), wk =   0.0120210
        k(   54) = (   0.3636364   0.3636364   0.4545455), wk =   0.0360631
        k(   55) = (   0.3636364   0.4545455   0.4545455), wk =   0.0360631
        k(   56) = (   0.4545455   0.4545455   0.4545455), wk =   0.0120210

     Dense  grid:   108383 G-vectors     FFT dimensions: (  60,  60,  60)

     Smooth grid:    38401 G-vectors     FFT dimensions: (  45,  45,  45)

     Estimated max dynamical RAM per process >      69.94 MB

     Estimated total dynamical RAM >     559.55 MB

     Check: negative core charge=   -0.000005

     Initial potential from superposition of free atoms

     starting charge      26.9995, renormalised to      28.0000

     negative rho (up, down):  1.441E-03 0.000E+00
     Starting wfcs are   23 randomized atomic wfcs
     Checking if some PAW data can be deallocated... 

     total cpu time spent up to now is        1.7 secs

     per-process dynamical memory:   137.2 Mb

     Self-consistent Calculation

     iteration #  1     ecut=   140.00 Ry     beta= 0.70
     Davidson diagonalization with overlap
     ethr =  1.00E-02,  avg # of iterations =  2.1

     negative rho (up, down):  1.195E-04 0.000E+00

     total cpu time spent up to now is        3.0 secs

     total energy              =    -434.88783092 Ry
     estimated scf accuracy    <      17.46872440 Ry

     iteration #  2     ecut=   140.00 Ry     beta= 0.70
     Davidson diagonalization with overlap
     ethr =  1.00E-02,  avg # of iterations =  6.0

     negative rho (up, down):  3.996E-05 0.000E+00

     total cpu time spent up to now is        5.0 secs

     total energy              =    -448.51607314 Ry
     estimated scf accuracy    <      66.08738840 Ry

     iteration #  3     ecut=   140.00 Ry     beta= 0.70
     Davidson diagonalization with overlap
     ethr =  1.00E-02,  avg # of iterations =  3.1

     negative rho (up, down):  2.386E-04 0.000E+00

     total cpu time spent up to now is        6.5 secs

     total energy              =    -448.59021897 Ry
     estimated scf accuracy    <      16.77906825 Ry

     iteration #  4     ecut=   140.00 Ry     beta= 0.70
     Davidson diagonalization with overlap
     ethr =  1.00E-02,  avg # of iterations =  2.1

     negative rho (up, down):  2.666E-04 0.000E+00

     total cpu time spent up to now is        7.8 secs

     total energy              =    -449.11148608 Ry
     estimated scf accuracy    <       4.68016004 Ry

     iteration #  5     ecut=   140.00 Ry     beta= 0.70
     Davidson diagonalization with overlap
     ethr =  1.00E-02,  avg # of iterations =  1.0

     negative rho (up, down):  3.015E-04 0.000E+00

     total cpu time spent up to now is        8.9 secs

     total energy              =    -449.11686318 Ry
     estimated scf accuracy    <       4.27498925 Ry

     iteration #  6     ecut=   140.00 Ry     beta= 0.70
     Davidson diagonalization with overlap
     ethr =  1.00E-02,  avg # of iterations =  1.0

     negative rho (up, down):  1.170E-03 0.000E+00

     total cpu time spent up to now is        9.9 secs

     total energy              =    -447.90864956 Ry
     estimated scf accuracy    <       4.47623014 Ry

     iteration #  7     ecut=   140.00 Ry     beta= 0.70
     Davidson diagonalization with overlap
     ethr =  1.00E-02,  avg # of iterations =  3.3

     negative rho (up, down):  1.040E-03 0.000E+00

     total cpu time spent up to now is       11.2 secs

     total energy              =    -448.57920039 Ry
     estimated scf accuracy    <       3.47535532 Ry

     iteration #  8     ecut=   140.00 Ry     beta= 0.70
     Davidson diagonalization with overlap
     ethr =  1.00E-02,  avg # of iterations =  1.0

     negative rho (up, down):  7.649E-04 0.000E+00

     total cpu time spent up to now is       12.3 secs

     total energy              =    -448.47375751 Ry
     estimated scf accuracy    <       1.05660052 Ry

     iteration #  9     ecut=   140.00 Ry     beta= 0.70
     Davidson diagonalization with overlap
     ethr =  3.77E-03,  avg # of iterations =  1.7

     negative rho (up, down):  7.648E-04 0.000E+00

     total cpu time spent up to now is       13.4 secs

     total energy              =    -448.60422148 Ry
     estimated scf accuracy    <       0.17763550 Ry

     iteration # 10     ecut=   140.00 Ry     beta= 0.70
     Davidson diagonalization with overlap
     ethr =  6.34E-04,  avg # of iterations =  1.6

     negative rho (up, down):  8.816E-04 0.000E+00

     total cpu time spent up to now is       14.5 secs

     total energy              =    -448.58116912 Ry
     estimated scf accuracy    <       0.25086612 Ry

     iteration # 11     ecut=   140.00 Ry     beta= 0.70
     Davidson diagonalization with overlap
     ethr =  6.34E-04,  avg # of iterations =  1.3

     negative rho (up, down):  8.495E-04 0.000E+00

     total cpu time spent up to now is       15.6 secs

     total energy              =    -448.59397090 Ry
     estimated scf accuracy    <       0.03357773 Ry

     iteration # 12     ecut=   140.00 Ry     beta= 0.70
     Davidson diagonalization with overlap
     ethr =  1.20E-04,  avg # of iterations =  2.4

     negative rho (up, down):  9.407E-04 0.000E+00

     total cpu time spent up to now is       16.7 secs

     total energy              =    -448.59387082 Ry
     estimated scf accuracy    <       0.13632779 Ry

     iteration # 13     ecut=   140.00 Ry     beta= 0.70
     Davidson diagonalization with overlap
     ethr =  1.20E-04,  avg # of iterations =  2.1

     negative rho (up, down):  2.405E+00 0.000E+00

     total cpu time spent up to now is       17.9 secs

     total energy              =    -457.01051188 Ry
     estimated scf accuracy    <       0.17423445 Ry

     iteration # 14     ecut=   140.00 Ry     beta= 0.70
     Davidson diagonalization with overlap
     ethr =  1.20E-04,  avg # of iterations =  7.3

     negative rho (up, down):  6.685E-04 0.000E+00

     total cpu time spent up to now is       20.4 secs

     total energy              =    -440.25640557 Ry
     estimated scf accuracy    <      82.02723684 Ry

     iteration # 15     ecut=   140.00 Ry     beta= 0.70
     Davidson diagonalization with overlap
     ethr =  1.20E-04,  avg # of iterations = 10.9

     negative rho (up, down):  1.543E-03 0.000E+00

     total cpu time spent up to now is       23.8 secs

     total energy              =    -448.48615747 Ry
     estimated scf accuracy    <       0.97114746 Ry

     iteration # 16     ecut=   140.00 Ry     beta= 0.70
     Davidson diagonalization with overlap
     ethr =  1.20E-04,  avg # of iterations =  6.2

     negative rho (up, down):  1.737E-03 0.000E+00

     total cpu time spent up to now is       25.7 secs

     total energy              =    -448.58904194 Ry
     estimated scf accuracy    <       0.10241972 Ry

     iteration # 17     ecut=   140.00 Ry     beta= 0.70
     Davidson diagonalization with overlap
     ethr =  1.20E-04,  avg # of iterations =  2.4

     negative rho (up, down):  2.807E-03 0.000E+00

     total cpu time spent up to now is       27.0 secs

     total energy              =    -448.61516982 Ry
     estimated scf accuracy    <       0.08266940 Ry

     iteration # 18     ecut=   140.00 Ry     beta= 0.70
     Davidson diagonalization with overlap
     ethr =  1.20E-04,  avg # of iterations =  2.3

     negative rho (up, down):  1.365E-03 0.000E+00

     total cpu time spent up to now is       28.3 secs

     total energy              =    -448.58223319 Ry
     estimated scf accuracy    <       0.08942820 Ry

     iteration # 19     ecut=   140.00 Ry     beta= 0.70
     Davidson diagonalization with overlap
     ethr =  1.20E-04,  avg # of iterations =  2.1

     negative rho (up, down):  1.323E-03 0.000E+00

     total cpu time spent up to now is       29.6 secs

     total energy              =    -448.58819789 Ry
     estimated scf accuracy    <       0.00987732 Ry

     iteration # 20     ecut=   140.00 Ry     beta= 0.70
     Davidson diagonalization with overlap
     ethr =  3.53E-05,  avg # of iterations =  1.1

     negative rho (up, down):  1.233E-03 0.000E+00

     total cpu time spent up to now is       30.7 secs

     total energy              =    -448.58747682 Ry
     estimated scf accuracy    <       0.00677960 Ry

     iteration # 21     ecut=   140.00 Ry     beta= 0.70
     Davidson diagonalization with overlap
     ethr =  2.42E-05,  avg # of iterations =  1.3

     negative rho (up, down):  1.238E-03 0.000E+00

     total cpu time spent up to now is       31.8 secs

     total energy              =    -448.58770724 Ry
     estimated scf accuracy    <       0.00303456 Ry

     iteration # 22     ecut=   140.00 Ry     beta= 0.70
     Davidson diagonalization with overlap
     ethr =  1.08E-05,  avg # of iterations =  1.1

     negative rho (up, down):  1.238E-03 0.000E+00

     total cpu time spent up to now is       32.8 secs

     total energy              =    -448.58770287 Ry
     estimated scf accuracy    <       0.00318756 Ry

     iteration # 23     ecut=   140.00 Ry     beta= 0.70
     Davidson diagonalization with overlap
     ethr =  1.08E-05,  avg # of iterations =  1.0

     negative rho (up, down):  9.519E-04 0.000E+00

     total cpu time spent up to now is       33.9 secs

     total energy              =    -448.58604296 Ry
     estimated scf accuracy    <       0.00310102 Ry

     iteration # 24     ecut=   140.00 Ry     beta= 0.70
     Davidson diagonalization with overlap
     ethr =  1.08E-05,  avg # of iterations =  2.7

     negative rho (up, down):  9.805E-04 0.000E+00

     total cpu time spent up to now is       35.3 secs

     total energy              =    -448.58665130 Ry
     estimated scf accuracy    <       0.00117931 Ry

     iteration # 25     ecut=   140.00 Ry     beta= 0.70
     Davidson diagonalization with overlap
     ethr =  4.21E-06,  avg # of iterations =  1.1

     negative rho (up, down):  9.833E-04 0.000E+00

     total cpu time spent up to now is       36.3 secs

     total energy              =    -448.58673139 Ry
     estimated scf accuracy    <       0.00000648 Ry

     iteration # 26     ecut=   140.00 Ry     beta= 0.70
     Davidson diagonalization with overlap
     ethr =  2.31E-08,  avg # of iterations =  5.4

     negative rho (up, down):  9.823E-04 0.000E+00

     total cpu time spent up to now is       38.0 secs

     total energy              =    -448.58674208 Ry
     estimated scf accuracy    <       0.00000952 Ry

     iteration # 27     ecut=   140.00 Ry     beta= 0.70
     Davidson diagonalization with overlap
     ethr =  2.31E-08,  avg # of iterations =  1.4

     negative rho (up, down):  9.810E-04 0.000E+00

     total cpu time spent up to now is       39.1 secs

     total energy              =    -448.58674165 Ry
     estimated scf accuracy    <       0.00000221 Ry

     iteration # 28     ecut=   140.00 Ry     beta= 0.70
     Davidson diagonalization with overlap
     ethr =  7.90E-09,  avg # of iterations =  2.8

     negative rho (up, down):  9.801E-04 0.000E+00

     total cpu time spent up to now is       40.3 secs

     total energy              =    -448.58674182 Ry
     estimated scf accuracy    <       0.00000018 Ry

     iteration # 29     ecut=   140.00 Ry     beta= 0.70
     Davidson diagonalization with overlap
     ethr =  6.28E-10,  avg # of iterations =  4.6

     negative rho (up, down):  9.806E-04 0.000E+00

     total cpu time spent up to now is       41.8 secs

     total energy              =    -448.58674191 Ry
     estimated scf accuracy    <       0.00000022 Ry

     iteration # 30     ecut=   140.00 Ry     beta= 0.70
     Davidson diagonalization with overlap
     ethr =  6.28E-10,  avg # of iterations =  2.0

     negative rho (up, down):  9.807E-04 0.000E+00

     total cpu time spent up to now is       43.0 secs

     total energy              =    -448.58674194 Ry
     estimated scf accuracy    <       0.00000003 Ry

     iteration # 31     ecut=   140.00 Ry     beta= 0.70
     Davidson diagonalization with overlap
     ethr =  9.43E-11,  avg # of iterations =  2.5

     negative rho (up, down):  9.807E-04 0.000E+00

     total cpu time spent up to now is       44.2 secs

     End of self-consistent calculation

          k = 0.0000 0.0000 0.0000 (  4801 PWs)   bands (ev):

   -69.2105 -39.1520 -35.2719 -35.2719 -35.2719 -15.2462 -15.2462 -15.2462
    10.1527  13.8638  13.8638  16.6567  16.6567  16.6567  18.9980  18.9980
    20.9362  20.9362

          k = 0.0000 0.0000 0.0909 (  4813 PWs)   bands (ev):

   -69.2103 -39.1498 -35.2744 -35.2715 -35.2715 -15.2755 -15.2445 -15.2445
    10.3255  13.9469  13.9535  16.6439  16.6439  16.6946  18.8925  19.0378
    20.6855  20.6855

          k = 0.0000 0.0000 0.1818 (  4809 PWs)   bands (ev):

   -69.2095 -39.1441 -35.2812 -35.2705 -35.2705 -15.3534 -15.2398 -15.2398
    10.8271  14.1865  14.1905  16.6147  16.6147  16.8007  18.5873  19.1277
    20.1019  20.1019

          k = 0.0000 0.0000 0.2727 (  4789 PWs)   bands (ev):

   -69.2085 -39.1367 -35.2899 -35.2691 -35.2691 -15.4542 -15.2336 -15.2336
    11.6055  14.4522  14.5737  16.5898  16.5898  16.9515  18.1200  19.1614
    19.4560  19.4560

          k = 0.0000 0.0000 0.3636 (  4805 PWs)   bands (ev):

   -69.2077 -39.1298 -35.2979 -35.2679 -35.2679 -15.5457 -15.2279 -15.2279
    12.5658  14.5650  15.0484  16.5849  16.5849  17.1050  17.5651  18.9272
    18.9272  18.9713

          k = 0.0000 0.0000 0.4545 (  4797 PWs)   bands (ev):

   -69.2071 -39.1258 -35.3026 -35.2672 -35.2672 -15.5995 -15.2246 -15.2246
    13.5346  14.3042  15.4743  16.5938  16.5938  17.0901  17.2051  18.6279
    18.6279  18.6587

          k = 0.0000 0.0909 0.0909 (  4801 PWs)   bands (ev):

   -69.2100 -39.1476 -35.2754 -35.2730 -35.2712 -15.2766 -15.2703 -15.2426
    10.4949  14.0264  14.0435  16.5615  16.6234  16.7907  18.8773  19.0085
    20.4101  20.4349

          k = 0.0000 0.0909 0.1818 (  4809 PWs)   bands (ev):

   -69.2092 -39.1415 -35.2817 -35.2729 -35.2701 -15.3510 -15.2677 -15.2377
    10.9855  14.2439  14.2905  16.4812  16.5731  16.9083  18.6424  19.0870
    19.8664  19.8998

          k = 0.0000 0.0909 0.2727 (  4794 PWs)   bands (ev):

   -69.2083 -39.1336 -35.2905 -35.2721 -35.2688 -15.4507 -15.2607 -15.2313
    11.7433  14.5127  14.6444  16.4376  16.5166  16.9934  18.2445  19.0575
    19.3651  19.3999

          k = 0.0000 0.0909 0.3636 (  4792 PWs)   bands (ev):

   -69.2074 -39.1264 -35.2987 -35.2714 -35.2676 -15.5412 -15.2543 -15.2254
    12.6706  14.6169  15.0807  16.4433  16.4654  16.9996  17.7897  18.6457
    19.0662  19.2131

          k = 0.0000 0.0909 0.4545 (  4809 PWs)   bands (ev):

   -69.2068 -39.1220 -35.3035 -35.2710 -35.2668 -15.5945 -15.2504 -15.2218
    13.5941  14.3517  15.4691  16.3967  16.4804  16.9449  17.4631  18.3525
    18.9321  19.0195

          k = 0.0000 0.1818 0.1818 (  4801 PWs)   bands (ev):

   -69.2085 -39.1346 -35.2846 -35.2777 -35.2692 -15.3520 -15.3344 -15.2322
    11.4400  14.3899  14.5686  16.3068  16.4777  16.9855  18.6947  19.0457
    19.3494  19.5756

          k = 0.0000 0.1818 0.2727 (  4781 PWs)   bands (ev):

   -69.2075 -39.1254 -35.2925 -35.2799 -35.2679 -15.4414 -15.3327 -15.2251
    12.1273  14.5564  14.9461  16.1857  16.3867  16.9099  18.5207  18.8012
    19.2046  19.3968

          k = 0.0000 0.1818 0.3636 (  4794 PWs)   bands (ev):

   -69.2067 -39.1170 -35.3009 -35.2808 -35.2667 -15.5292 -15.3243 -15.2185
    12.9353  14.5942  15.3321  16.1497  16.3570  16.7001  18.2180  18.4615
    19.3301  19.4168

          k = 0.0000 0.1818 0.4545 (  4800 PWs)   bands (ev):

   -69.2061 -39.1121 -35.3060 -35.2812 -35.2660 -15.5811 -15.3193 -15.2145
    13.6840  14.3629  15.6124  16.2007  16.3899  16.4818  18.0479  18.2165
    19.3517  19.5138

          k = 0.0000 0.2727 0.2727 (  4801 PWs)   bands (ev):

   -69.2066 -39.1147 -35.2967 -35.2885 -35.2666 -15.4379 -15.4173 -15.2169
    12.6686  14.5347  15.3962  15.9773  16.3398  16.6424  18.5786  18.7500
    19.1051  19.5701

          k = 0.0000 0.2727 0.3636 (  4801 PWs)   bands (ev):

   -69.2057 -39.1048 -35.3040 -35.2929 -35.2655 -15.5136 -15.4150 -15.2094
    13.2264  14.4164  15.8406  15.8677  16.3178  16.4949  18.3956  18.7290
    19.2747  19.8462

          k = 0.0000 0.2727 0.4545 (  4782 PWs)   bands (ev):

   -69.2052 -39.0989 -35.3093 -35.2945 -35.2648 -15.5634 -15.4085 -15.2049
    13.6459  14.2280  15.8806  16.0549  16.0844  16.8464  18.1509  18.6843
    19.4867  20.0939

          k = 0.0000 0.3636 0.3636 (  4791 PWs)   bands (ev):

   -69.2048 -39.0935 -35.3078 -35.3030 -35.2644 -15.5043 -15.4924 -15.2010
    13.4197  14.2077  15.6810  15.9707  16.4455  16.8937  18.5220  19.0878
    19.1101  20.2510

          k = 0.0000 0.3636 0.4545 (  4789 PWs)   bands (ev):

   -69.2043 -39.0868 -35.3124 -35.3067 -35.2638 -15.5471 -15.4895 -15.1961
    13.5037  14.0681  15.6292  15.7308  16.8138  17.5389  18.2825  19.1480
    19.3227  20.5542

          k = 0.0000 0.4545 0.4545 (  4782 PWs)   bands (ev):

   -69.2038 -39.0796 -35.3145 -35.3138 -35.2631 -15.5382 -15.5365 -15.1908
    13.3944  13.9722  15.5083  15.5424  17.5105  17.9877  18.6667  18.8518
    19.4117  20.8259

          k = 0.0909 0.0909 0.0909 (  4812 PWs)   bands (ev):

   -69.2097 -39.1452 -35.2750 -35.2750 -35.2717 -15.2770 -15.2685 -15.2685
    10.6614  14.1184  14.1184  16.5390  16.5390  16.8680  18.9293  18.9293
    19.9925  20.6648

          k = 0.0909 0.0909 0.1818 (  4793 PWs)   bands (ev):

   -69.2090 -39.1389 -35.2818 -35.2739 -35.2716 -15.3485 -15.2673 -15.2637
    11.1425  14.3360  14.3553  16.4285  16.4795  16.9501  18.7010  19.0491
    19.5185  20.0786

          k = 0.0909 0.0909 0.2727 (  4789 PWs)   bands (ev):

   -69.2080 -39.1306 -35.2910 -35.2725 -35.2713 -15.4472 -15.2592 -15.2575
    11.8824  14.6167  14.6735  16.3699  16.3986  16.9453  18.3562  19.0004
    19.3234  19.4425

          k = 0.0909 0.0909 0.3636 (  4799 PWs)   bands (ev):

   -69.2071 -39.1229 -35.2994 -35.2712 -35.2710 -15.5369 -15.2517 -15.2517
    12.7808  14.7007  15.0812  16.2988  16.4003  16.8594  17.9710  18.7161
    18.9366  19.4200

          k = 0.0909 0.0909 0.4545 (  4810 PWs)   bands (ev):

   -69.2066 -39.1184 -35.3043 -35.2708 -35.2705 -15.5897 -15.2483 -15.2472
    13.6654  14.4196  15.4382  16.1744  16.5154  16.7698  17.6947  18.4314
    18.6595  19.5235

          k = 0.0909 0.1818 0.1818 (  4797 PWs)   bands (ev):

   -69.2082 -39.1317 -35.2842 -35.2785 -35.2717 -15.3488 -15.3326 -15.2596
    11.5924  14.4937  14.6187  16.2698  16.3701  16.9130  18.7642  19.0170
    19.2356  19.7946

          k = 0.0909 0.1818 0.2727 (  4797 PWs)   bands (ev):

   -69.2073 -39.1223 -35.2925 -35.2801 -35.2711 -15.4381 -15.3302 -15.2519
    12.2704  14.6755  14.9646  16.1420  16.2713  16.7314  18.6108  18.9227
    19.2405  19.4557

          k = 0.0909 0.1818 0.3636 (  4803 PWs)   bands (ev):

   -69.2064 -39.1137 -35.3013 -35.2805 -35.2703 -15.5254 -15.3218 -15.2448
    13.0615  14.7214  15.2858  16.0685  16.2633  16.5478  18.3723  18.5769
    19.1010  19.7197

          k = 0.0909 0.1818 0.4545 (  4803 PWs)   bands (ev):

   -69.2059 -39.1086 -35.3065 -35.2808 -35.2697 -15.5769 -15.3168 -15.2406
    13.7874  14.4739  15.5174  16.0017  16.3646  16.4907  18.1990  18.2870
    18.8989  20.1084

          k = 0.0909 0.2727 0.2727 (  4802 PWs)   bands (ev):

   -69.2063 -39.1115 -35.2962 -35.2888 -35.2701 -15.4341 -15.4154 -15.2436
    12.8156  14.6586  15.4057  15.9388  16.2099  16.4304  18.6961  18.9061
    19.0872  19.7045

          k = 0.0909 0.2727 0.3636 (  4797 PWs)   bands (ev):

   -69.2054 -39.1016 -35.3039 -35.2927 -35.2691 -15.5104 -15.4126 -15.2358
    13.3702  14.5418  15.7741  15.8301  16.2028  16.3598  18.4778  18.8191
    19.1581  20.1170

          k = 0.0909 0.2727 0.4545 (  4778 PWs)   bands (ev):

   -69.2049 -39.0956 -35.3094 -35.2941 -35.2685 -15.5601 -15.4062 -15.2312
    13.7755  14.3544  15.7971  15.8475  16.1549  16.7539  18.1883  18.7885
    19.0871  20.6000

          k = 0.0909 0.3636 0.3636 (  4782 PWs)   bands (ev):

   -69.2046 -39.0904 -35.3073 -35.3030 -35.2681 -15.5012 -15.4905 -15.2275
    13.5655  14.3324  15.6505  15.8815  16.4031  16.7207  18.4858  18.9866
    19.1885  20.5635

          k = 0.0909 0.3636 0.4545 (  4779 PWs)   bands (ev):

   -69.2040 -39.0837 -35.3121 -35.3063 -35.2674 -15.5447 -15.4874 -15.2225
    13.6400  14.1965  15.5968  15.6796  16.7390  17.3609  18.2403  18.9493
    19.2814  20.7956

          k = 0.0909 0.4545 0.4545 (  4772 PWs)   bands (ev):

   -69.2035 -39.0766 -35.3139 -35.3133 -35.2668 -15.5361 -15.5346 -15.2174
    13.5313  14.1008  15.4859  15.5155  17.4522  17.8444  18.4158  18.5133
    19.4897  21.0190

          k = 0.1818 0.1818 0.1818 (  4806 PWs)   bands (ev):

   -69.2075 -39.1240 -35.2830 -35.2830 -35.2762 -15.3448 -15.3276 -15.3276
    12.0265  14.7609  14.7609  16.1711  16.1711  16.6503  18.9327  18.9327
    19.2927  20.0372

          k = 0.1818 0.1818 0.2727 (  4797 PWs)   bands (ev):

   -69.2065 -39.1140 -35.2927 -35.2815 -35.2783 -15.4293 -15.3260 -15.3211
    12.6695  14.9701  15.0332  16.0339  16.0386  16.3367  18.8048  19.0076
    19.4271  19.5986

          k = 0.1818 0.1818 0.3636 (  4789 PWs)   bands (ev):

   -69.2057 -39.1047 -35.3022 -35.2802 -35.2796 -15.5152 -15.3152 -15.3151
    13.3928  15.0072  15.2034  15.8990  16.0681  16.2648  18.6702  18.7431
    18.9521  20.1613

          k = 0.1818 0.1818 0.4545 (  4794 PWs)   bands (ev):

   -69.2051 -39.0992 -35.3079 -35.2803 -35.2794 -15.5659 -15.3115 -15.3086
    14.0170  14.6820  15.3919  15.7786  16.1843  16.4448  18.3321  18.5951
    18.6804  20.5296

          k = 0.1818 0.2727 0.2727 (  4800 PWs)   bands (ev):

   -69.2056 -39.1030 -35.2950 -35.2899 -35.2793 -15.4239 -15.4103 -15.3145
    13.2273  14.9963  15.4271  15.8396  15.9188  15.9975  18.8250  19.0094
    19.3282  20.0775

          k = 0.1818 0.2727 0.3636 (  4799 PWs)   bands (ev):

   -69.2047 -39.0929 -35.3036 -35.2923 -35.2789 -15.5018 -15.4061 -15.3062
    13.7699  14.8705  15.5748  15.7252  15.9736  16.0869  18.5904  18.8381
    19.2205  20.3804

          k = 0.1818 0.2727 0.4545 (  4793 PWs)   bands (ev):

   -69.2042 -39.0869 -35.3097 -35.2930 -35.2785 -15.5514 -15.4001 -15.3012
    14.1252  14.6659  15.5486  15.6704  16.0600  16.5354  18.2318  18.6755
    19.1296  20.6012

          k = 0.1818 0.3636 0.3636 (  4787 PWs)   bands (ev):

   -69.2038 -39.0820 -35.3060 -35.3028 -35.2779 -15.4931 -15.4853 -15.2980
    13.9818  14.6575  15.5746  15.6895  16.2717  16.2954  18.4620  18.6968
    19.4848  20.5433

          k = 0.1818 0.3636 0.4545 (  4771 PWs)   bands (ev):

   -69.2033 -39.0755 -35.3114 -35.3051 -35.2773 -15.5380 -15.4818 -15.2931
    14.0271  14.5322  15.5199  15.5674  16.4914  16.9248  18.1792  18.5400
    19.5614  20.7851

          k = 0.1818 0.4545 0.4545 (  4773 PWs)   bands (ev):

   -69.2028 -39.0687 -35.3126 -35.3121 -35.2766 -15.5306 -15.5295 -15.2883
    13.9233  14.4433  15.4328  15.4543  17.1744  17.2810  18.0689  18.2502
    19.7504  21.0762

          k = 0.2727 0.2727 0.2727 (  4800 PWs)   bands (ev):

   -69.2046 -39.0918 -35.2934 -35.2934 -35.2892 -15.4135 -15.4036 -15.4036
    13.7988  15.4439  15.4439  15.5180  15.7192  15.7192  18.8335  18.8335
    19.7981  19.7981

          k = 0.2727 0.2727 0.3636 (  4784 PWs)   bands (ev):

   -69.2038 -39.0815 -35.3035 -35.2919 -35.2913 -15.4907 -15.3976 -15.3974
    14.2963  15.1355  15.4425  15.6206  15.7208  15.9352  18.5783  18.6237
    19.6453  20.2945

          k = 0.2727 0.2727 0.4545 (  4788 PWs)   bands (ev):

   -69.2033 -39.0754 -35.3100 -35.2921 -35.2910 -15.5399 -15.3937 -15.3903
    14.5096  14.9114  15.4300  15.5700  15.9003  16.3708  18.1749  18.4968
    19.5912  20.6350

          k = 0.2727 0.3636 0.3636 (  4793 PWs)   bands (ev):

   -69.2029 -39.0710 -35.3043 -35.3026 -35.2908 -15.4823 -15.4786 -15.3894
    14.5956  15.0025  15.4916  15.5871  15.8169  16.0594  18.4141  18.4171
    19.9494  20.4944

          k = 0.2727 0.3636 0.4545 (  4775 PWs)   bands (ev):

   -69.2024 -39.0647 -35.3104 -35.3035 -35.2902 -15.5293 -15.4744 -15.3845
    14.5792  14.9170  15.4520  15.5075  16.1031  16.4657  18.0771  18.3311
    20.0118  20.8203

          k = 0.2727 0.4545 0.4545 (  4781 PWs)   bands (ev):

   -69.2019 -39.0584 -35.3107 -35.3105 -35.2894 -15.5233 -15.5228 -15.3801
    14.5065  14.8768  15.3853  15.4133  16.6252  16.6524  17.9059  18.1705
    20.1895  21.1134

          k = 0.3636 0.3636 0.3636 (  4782 PWs)   bands (ev):

   -69.2021 -39.0609 -35.3027 -35.3027 -35.3023 -15.4726 -15.4723 -15.4723
    14.9946  15.3298  15.4468  15.4468  15.8144  15.8144  18.2410  18.2410
    20.5000  20.5000

          k = 0.3636 0.3636 0.4545 (  4768 PWs)   bands (ev):

   -69.2015 -39.0548 -35.3095 -35.3023 -35.3017 -15.5213 -15.4686 -15.4666
    14.9930  15.1652  15.4765  15.6072  15.7983  16.1602  17.9823  18.1637
    20.5127  20.9124

          k = 0.3636 0.4545 0.4545 (  4764 PWs)   bands (ev):

   -69.2010 -39.0489 -35.3091 -35.3090 -35.3011 -15.5166 -15.5166 -15.4636
    15.1007  15.2494  15.3887  15.4961  16.0922  16.1435  17.8650  18.0299
    20.7351  21.1427

          k = 0.4545 0.4545 0.4545 (  4752 PWs)   bands (ev):

   -69.2005 -39.0432 -35.3082 -35.3081 -35.3081 -15.5129 -15.5129 -15.5125
    15.3315  15.4751  15.4751  15.7773  15.7773  15.8002  17.8551  17.8551
    21.1594  21.1594

     the Fermi energy is    17.5934 ev

!    total energy              =    -448.58674194 Ry
     estimated scf accuracy    <          1.7E-09 Ry
     smearing contrib. (-TS)   =       0.00005040 Ry
     internal energy E=F+TS    =    -448.58679234 Ry

     The total energy is F=E-TS. E is the sum of the following terms:
     one-electron contribution =    -151.34229648 Ry
     hartree contribution      =      91.61731210 Ry
     xc contribution           =     -52.88723618 Ry
     ewald contribution        =    -259.82070277 Ry
     one-center paw contrib.   =     -76.15386901 Ry

     convergence has been achieved in  31 iterations

     negative rho (up, down):  9.807E-04 0.000E+00

     Forces acting on atoms (cartesian axes, Ry/au):

     atom    1 type  2   force =     0.00000000    0.00000000    0.00000000
     atom    2 type  1   force =     0.00000000    0.00000000    0.00000000

     Total force =     0.000000     Total SCF correction =     0.000000


     Computing stress (Cartesian axis) and pressure


     negative rho (up, down):  9.807E-04 0.000E+00
          total   stress  (Ry/bohr**3)                   (kbar)     P=       33.06
   0.00022472   0.00000000   0.00000000           33.06        0.00        0.00
   0.00000000   0.00022472   0.00000000            0.00       33.06        0.00
   0.00000000   0.00000000   0.00022472            0.00        0.00       33.06


     BFGS Geometry Optimization
     Energy error            =      6.4E-04 Ry
     Gradient error          =      0.0E+00 Ry/Bohr
     Cell gradient error     =      3.3E+01 kbar

     number of scf cycles    =   1
     number of bfgs steps    =   0

     enthalpy           new  =    -448.5867419398 Ry

     new trust radius        =       0.0147042356 bohr
     new conv_thr            =       0.0000000100 Ry

     new unit-cell volume =    174.16171 a.u.^3 (    25.80810 Ang^3 )
     density =      6.67301 g/cm^3

CELL_PARAMETERS (alat=  5.55330037)
   1.005618051   0.000000000   0.000000000
   0.000000000   1.005618051   0.000000000
   0.000000000   0.000000000   1.005618051

ATOMIC_POSITIONS (crystal)
Fe               0.5000000000        0.5000000000        0.5000000000
Ti               0.0000000000        0.0000000000        0.0000000000



     Writing config-only to output data dir ./outputs/TiFe.save/ :
     XML data file     NEW-OLD atomic charge density approx. for the potential
     New effective cutoffs (rho, wfc): 1106.38  138.43

     Check: negative core charge=   -0.000005

     negative rho (up, down):  9.853E-04 0.000E+00

     total cpu time spent up to now is       45.6 secs

     per-process dynamical memory:   140.6 Mb

     Self-consistent Calculation

     iteration #  1     ecut=   140.00 Ry     beta= 0.70
     Davidson diagonalization with overlap
     ethr =  1.00E-06,  avg # of iterations =  5.3

     negative rho (up, down):  9.767E-04 0.000E+00

     total cpu time spent up to now is       47.5 secs

     total energy              =    -448.58702209 Ry
     estimated scf accuracy    <       0.00003793 Ry

     iteration #  2     ecut=   140.00 Ry     beta= 0.70
     Davidson diagonalization with overlap
     ethr =  1.35E-07,  avg # of iterations =  4.1

     negative rho (up, down):  9.739E-04 0.000E+00

     total cpu time spent up to now is       49.0 secs

     total energy              =    -448.58689587 Ry
     estimated scf accuracy    <       0.00209737 Ry

     iteration #  3     ecut=   140.00 Ry     beta= 0.70
     Davidson diagonalization with overlap
     ethr =  1.35E-07,  avg # of iterations =  4.8

     negative rho (up, down):  9.765E-04 0.000E+00

     total cpu time spent up to now is       50.4 secs

     total energy              =    -448.58704599 Ry
     estimated scf accuracy    <       0.00011026 Ry

     iteration #  4     ecut=   140.00 Ry     beta= 0.70
     Davidson diagonalization with overlap
     ethr =  1.35E-07,  avg # of iterations =  1.8

     negative rho (up, down):  9.761E-04 0.000E+00

     total cpu time spent up to now is       51.5 secs

     total energy              =    -448.58705067 Ry
     estimated scf accuracy    <       0.00001189 Ry

     iteration #  5     ecut=   140.00 Ry     beta= 0.70
     Davidson diagonalization with overlap
     ethr =  4.25E-08,  avg # of iterations =  3.4

     negative rho (up, down):  9.756E-04 0.000E+00

     total cpu time spent up to now is       52.7 secs

     total energy              =    -448.58705196 Ry
     estimated scf accuracy    <       0.00000036 Ry

     iteration #  6     ecut=   140.00 Ry     beta= 0.70
     Davidson diagonalization with overlap
     ethr =  1.29E-09,  avg # of iterations =  4.7

     negative rho (up, down):  9.760E-04 0.000E+00

     total cpu time spent up to now is       54.1 secs

     total energy              =    -448.58705220 Ry
     estimated scf accuracy    <       0.00000003 Ry

     iteration #  7     ecut=   140.00 Ry     beta= 0.70
     Davidson diagonalization with overlap
     ethr =  1.19E-10,  avg # of iterations =  4.9

     negative rho (up, down):  9.754E-04 0.000E+00

     total cpu time spent up to now is       55.7 secs

     total energy              =    -448.58705205 Ry
     estimated scf accuracy    <       0.00000070 Ry

     iteration #  8     ecut=   140.00 Ry     beta= 0.70
     Davidson diagonalization with overlap
     ethr =  1.19E-10,  avg # of iterations =  5.1

     negative rho (up, down):  9.755E-04 0.000E+00

     total cpu time spent up to now is       57.4 secs

     End of self-consistent calculation

          k = 0.0000 0.0000 0.0000 (  4801 PWs)   bands (ev):

   -69.5404 -39.5272 -35.6011 -35.6011 -35.6011 -15.6262 -15.6262 -15.6262
     9.8649  13.6113  13.6113  16.3366  16.3366  16.3366  18.6306  18.6306
    20.5243  20.5243

          k = 0.0000 0.0000 0.0904 (  4813 PWs)   bands (ev):

   -69.5401 -39.5252 -35.6035 -35.6008 -35.6008 -15.6537 -15.6245 -15.6245
    10.0351  13.6929  13.6978  16.3240  16.3240  16.3736  18.5281  18.6690
    20.2799  20.2799

          k = 0.0000 0.0000 0.1808 (  4809 PWs)   bands (ev):

   -69.5395 -39.5198 -35.6100 -35.5998 -35.5998 -15.7271 -15.6200 -15.6200
    10.5294  13.9214  13.9318  16.2952  16.2952  16.4774  18.2316  18.7552
    19.7105  19.7105

          k = 0.0000 0.0000 0.2712 (  4789 PWs)   bands (ev):

   -69.5386 -39.5126 -35.6184 -35.5986 -35.5986 -15.8221 -15.6141 -15.6141
    11.2980  14.1733  14.3076  16.2701  16.2701  16.6247  17.7772  18.7839
    19.0800  19.0800

          k = 0.0000 0.0000 0.3616 (  4805 PWs)   bands (ev):

   -69.5377 -39.5061 -35.6260 -35.5974 -35.5974 -15.9083 -15.6087 -15.6087
    12.2491  14.2695  14.7725  16.2645  16.2645  16.7747  17.2370  18.5638
    18.5638  18.5905

          k = 0.0000 0.0000 0.4520 (  4797 PWs)   bands (ev):

   -69.5373 -39.5022 -35.6305 -35.5967 -35.5967 -15.9591 -15.6055 -15.6055
    13.2145  13.9927  15.1887  16.2723  16.2723  16.7747  16.8725  18.2719
    18.2719  18.2798

          k = 0.0000 0.0904 0.0904 (  4801 PWs)   bands (ev):

   -69.5399 -39.5231 -35.6043 -35.6022 -35.6004 -15.6546 -15.6489 -15.6227
    10.2020  13.7701  13.7854  16.2439  16.3038  16.4671  18.5133  18.6405
    20.0116  20.0354

          k = 0.0000 0.0904 0.1808 (  4809 PWs)   bands (ev):

   -69.5392 -39.5173 -35.6104 -35.6022 -35.5995 -15.7248 -15.6463 -15.6181
    10.6858  13.9814  14.0250  16.1655  16.2543  16.5816  18.2850  18.7158
    19.4802  19.5138

          k = 0.0000 0.0904 0.2712 (  4794 PWs)   bands (ev):

   -69.5383 -39.5098 -35.6189 -35.6014 -35.5982 -15.8188 -15.6397 -15.6119
    11.4346  14.2352  14.3733  16.1226  16.1984  16.6645  17.8982  18.6835
    18.9898  19.0258

          k = 0.0000 0.0904 0.3616 (  4792 PWs)   bands (ev):

   -69.5375 -39.5029 -35.6267 -35.6007 -35.5971 -15.9042 -15.6335 -15.6063
    12.3541  14.3220  14.8021  16.1273  16.1480  16.6711  17.4552  18.2810
    18.6995  18.8344

          k = 0.0000 0.0904 0.4520 (  4809 PWs)   bands (ev):

   -69.5370 -39.4988 -35.6313 -35.6003 -35.5964 -15.9545 -15.6299 -15.6029
    13.2757  14.0415  15.1825  16.0812  16.1623  16.6189  17.1359  17.9922
    18.5680  18.6421

          k = 0.0000 0.1808 0.1808 (  4801 PWs)   bands (ev):

   -69.5385 -39.5108 -35.6129 -35.6069 -35.5986 -15.7256 -15.7095 -15.6129
    11.1350  14.1237  14.2945  15.9957  16.1603  16.6562  18.3353  18.6759
    18.9742  19.1979

          k = 0.0000 0.1808 0.2712 (  4781 PWs)   bands (ev):

   -69.5376 -39.5022 -35.6205 -35.6088 -35.5974 -15.8101 -15.7076 -15.6060
    11.8165  14.2824  14.6614  15.8773  16.0698  16.5825  18.1669  18.4348
    18.8307  19.0231

          k = 0.0000 0.1808 0.3616 (  4794 PWs)   bands (ev):

   -69.5368 -39.4943 -35.6286 -35.6095 -35.5963 -15.8930 -15.6998 -15.5998
    12.6219  14.3077  15.0390  15.8418  16.0386  16.3784  17.8720  18.1010
    18.9491  19.0417

          k = 0.0000 0.1808 0.4520 (  4800 PWs)   bands (ev):

   -69.5363 -39.4896 -35.6335 -35.6098 -35.5956 -15.9420 -15.6950 -15.5960
    13.3751  14.0622  15.3155  15.8906  16.0676  16.1666  17.7051  17.8602
    18.9657  19.1354

          k = 0.0000 0.2712 0.2712 (  4801 PWs)   bands (ev):

   -69.5368 -39.4922 -35.6242 -35.6170 -35.5962 -15.8066 -15.7878 -15.5983
    12.3586  14.2587  15.0987  15.6741  16.0200  16.3216  18.2164  18.3913
    18.7315  19.1917

          k = 0.0000 0.2712 0.3616 (  4801 PWs)   bands (ev):

   -69.5360 -39.4830 -35.6312 -35.6208 -35.5952 -15.8785 -15.7855 -15.5913
    12.9239  14.1358  15.5315  15.5669  16.0055  16.1657  18.0358  18.3697
    18.8948  19.4604

          k = 0.0000 0.2712 0.4520 (  4782 PWs)   bands (ev):

   -69.5355 -39.4775 -35.6364 -35.6222 -35.5945 -15.9255 -15.7794 -15.5870
    13.3564  13.9394  15.5790  15.7495  15.7688  16.5045  17.7940  18.3274
    19.0968  19.7015

          k = 0.0000 0.3616 0.3616 (  4791 PWs)   bands (ev):

   -69.5352 -39.4726 -35.6346 -35.6304 -35.5942 -15.8697 -15.8588 -15.5834
    13.1340  13.9284  15.3847  15.6668  16.1216  16.5488  18.1562  18.7206
    18.7314  19.8550

          k = 0.0000 0.3616 0.4520 (  4789 PWs)   bands (ev):

   -69.5347 -39.4664 -35.6390 -35.6336 -35.5936 -15.9104 -15.8561 -15.5787
    13.2312  13.7870  15.3339  15.4330  16.4800  17.1804  17.9194  18.7766
    18.9373  20.1505

          k = 0.0000 0.4520 0.4520 (  4782 PWs)   bands (ev):

   -69.5342 -39.4598 -35.6408 -35.6402 -35.5930 -15.9021 -15.9006 -15.5738
    13.1303  13.6949  15.2159  15.2490  17.1656  17.6267  18.2881  18.4688
    19.0354  20.4154

          k = 0.0904 0.0904 0.0904 (  4812 PWs)   bands (ev):

   -69.5396 -39.5208 -35.6040 -35.6040 -35.6011 -15.6550 -15.6472 -15.6472
    10.3661  13.8588  13.8588  16.2218  16.2218  16.5420  18.5636  18.5636
    19.6040  20.2597

          k = 0.0904 0.0904 0.1808 (  4793 PWs)   bands (ev):

   -69.5390 -39.5148 -35.6105 -35.6030 -35.6010 -15.7224 -15.6459 -15.6426
    10.8407  14.0724  14.0867  16.1140  16.1634  16.6216  18.3419  18.6790
    19.1412  19.6875

          k = 0.0904 0.0904 0.2712 (  4789 PWs)   bands (ev):

   -69.5381 -39.5070 -35.6193 -35.6017 -35.6006 -15.8155 -15.6383 -15.6366
    11.5724  14.3348  14.4033  16.0561  16.0840  16.6168  18.0068  18.6287
    18.9490  19.0662

          k = 0.0904 0.0904 0.3616 (  4799 PWs)   bands (ev):

   -69.5373 -39.4997 -35.6273 -35.6005 -35.6003 -15.9002 -15.6312 -15.6311
    12.4641  14.4036  14.8027  15.9862  16.0848  16.5340  17.6318  18.3468
    18.5720  19.0401

          k = 0.0904 0.0904 0.4520 (  4810 PWs)   bands (ev):

   -69.5368 -39.4954 -35.6320 -35.6001 -35.5998 -15.9500 -15.6278 -15.6270
    13.3478  14.1092  15.1523  15.8645  16.1954  16.4473  17.3622  18.0642
    18.3015  19.1391

          k = 0.0904 0.1808 0.1808 (  4797 PWs)   bands (ev):

   -69.5383 -39.5081 -35.6125 -35.6075 -35.6011 -15.7225 -15.7077 -15.6386
    11.2855  14.2245  14.3437  15.9594  16.0561  16.5847  18.4029  18.6480
    18.8639  19.4104

          k = 0.0904 0.1808 0.2712 (  4797 PWs)   bands (ev):

   -69.5374 -39.4993 -35.6205 -35.6089 -35.6004 -15.8070 -15.7053 -15.6314
    11.9577  14.3988  14.6794  15.8344  15.9582  16.4078  18.2541  18.5530
    18.8668  19.0794

          k = 0.0904 0.1808 0.3616 (  4803 PWs)   bands (ev):

   -69.5366 -39.4912 -35.6289 -35.6093 -35.5996 -15.8894 -15.6974 -15.6247
    12.7466  14.4315  14.9944  15.7616  15.9485  16.2294  18.0230  18.2126
    18.7283  19.3343

          k = 0.0904 0.1808 0.4520 (  4803 PWs)   bands (ev):

   -69.5361 -39.4864 -35.6339 -35.6094 -35.5991 -15.9381 -15.6926 -15.6207
    13.4773  14.1708  15.2247  15.6939  16.0487  16.1698  17.8519  17.9289
    18.5298  19.7114

          k = 0.0904 0.2712 0.2712 (  4802 PWs)   bands (ev):

   -69.5365 -39.4893 -35.6238 -35.6173 -35.5995 -15.8031 -15.7860 -15.6235
    12.5031  14.3797  15.1081  15.6362  15.8947  16.1143  18.3311  18.5443
    18.7137  19.3212

          k = 0.0904 0.2712 0.3616 (  4797 PWs)   bands (ev):

   -69.5357 -39.4800 -35.6311 -35.6207 -35.5986 -15.8755 -15.7832 -15.6162
    13.0652  14.2584  15.4691  15.5279  15.8915  16.0355  18.1160  18.4577
    18.7823  19.7228

          k = 0.0904 0.2712 0.4520 (  4778 PWs)   bands (ev):

   -69.5352 -39.4745 -35.6364 -35.6218 -35.5980 -15.9225 -15.7772 -15.6118
    13.4839  14.0632  15.4974  15.5436  15.8389  16.4160  17.8301  18.4292
    18.7107  20.1944

          k = 0.0904 0.3616 0.3616 (  4782 PWs)   bands (ev):

   -69.5349 -39.4697 -35.6341 -35.6303 -35.5976 -15.8668 -15.8570 -15.6084
    13.2775  14.0502  15.3546  15.5794  16.0797  16.3803  18.1227  18.6104
    18.8193  20.1585

          k = 0.0904 0.3616 0.4520 (  4779 PWs)   bands (ev):

   -69.5344 -39.4636 -35.6387 -35.6332 -35.5970 -15.9081 -15.8541 -15.6037
    13.3653  13.9126  15.3018  15.3824  16.4056  17.0064  17.8796  18.5725
    18.9096  20.3874

          k = 0.0904 0.4520 0.4520 (  4772 PWs)   bands (ev):

   -69.5340 -39.4570 -35.6403 -35.6398 -35.5964 -15.9001 -15.8988 -15.5989
    13.2648  13.8205  15.1936  15.2223  17.1071  17.4824  18.0489  18.1403
    19.1121  20.6064

          k = 0.1808 0.1808 0.1808 (  4806 PWs)   bands (ev):

   -69.5376 -39.5009 -35.6115 -35.6115 -35.6055 -15.7188 -15.7029 -15.7029
    11.7146  14.4832  14.4832  15.8625  15.8625  16.3275  18.5661  18.5661
    18.9183  19.6470

          k = 0.1808 0.1808 0.2712 (  4797 PWs)   bands (ev):

   -69.5367 -39.4916 -35.6206 -35.6101 -35.6073 -15.7987 -15.7013 -15.6967
    12.3527  14.6886  14.7435  15.7279  15.7323  16.0218  18.4420  18.6353
    19.0512  19.2161

          k = 0.1808 0.1808 0.3616 (  4789 PWs)   bands (ev):

   -69.5359 -39.4829 -35.6297 -35.6089 -35.6084 -15.8799 -15.6912 -15.6909
    13.0758  14.7076  14.9180  15.5944  15.7590  15.9521  18.3116  18.3719
    18.5872  19.7633

          k = 0.1808 0.1808 0.4520 (  4794 PWs)   bands (ev):

   -69.5354 -39.4778 -35.6351 -35.6089 -35.6081 -15.9278 -15.6875 -15.6851
    13.7073  14.3770  15.1044  15.4743  15.8705  16.1236  17.9673  18.2400
    18.3208  20.1278

          k = 0.1808 0.2712 0.2712 (  4800 PWs)   bands (ev):

   -69.5359 -39.4814 -35.6227 -35.6181 -35.6081 -15.7936 -15.7811 -15.6905
    12.9085  14.7096  15.1296  15.5381  15.6137  15.6897  18.4577  18.6369
    18.9567  19.6825

          k = 0.1808 0.2712 0.3616 (  4799 PWs)   bands (ev):

   -69.5351 -39.4720 -35.6308 -35.6203 -35.6077 -15.8674 -15.7770 -15.6827
    13.4583  14.5801  15.2767  15.4244  15.6618  15.7745  18.2260  18.4683
    18.8517  19.9831

          k = 0.1808 0.2712 0.4520 (  4793 PWs)   bands (ev):

   -69.5346 -39.4664 -35.6366 -35.6208 -35.6073 -15.9142 -15.7714 -15.6779
    13.8285  14.3695  15.2550  15.3682  15.7430  16.2065  17.8713  18.3108
    18.7634  20.1980

          k = 0.1808 0.3616 0.3616 (  4787 PWs)   bands (ev):

   -69.5343 -39.4619 -35.6329 -35.6301 -35.6068 -15.8591 -15.8520 -15.6749
    13.6873  14.3684  15.2794  15.3902  15.9506  15.9672  18.1008  18.3274
    19.1094  20.1429

          k = 0.1808 0.3616 0.4520 (  4771 PWs)   bands (ev):

   -69.5338 -39.4560 -35.6380 -35.6321 -35.6062 -15.9018 -15.8487 -15.6703
    13.7465  14.2417  15.2255  15.2709  16.1608  16.5827  17.8204  18.1756
    19.1839  20.3784

          k = 0.1808 0.4520 0.4520 (  4773 PWs)   bands (ev):

   -69.5333 -39.4497 -35.6390 -35.6386 -35.6055 -15.8948 -15.8938 -15.6657
    13.6504  14.1558  15.1403  15.1610  16.8310  16.9298  17.7115  17.8912
    19.3674  20.6632

          k = 0.2712 0.2712 0.2712 (  4800 PWs)   bands (ev):

   -69.5350 -39.4710 -35.6212 -35.6212 -35.6175 -15.7839 -15.7746 -15.7746
    13.4743  15.1475  15.1475  15.2204  15.4181  15.4181  18.4645  18.4645
    19.4159  19.4159

          k = 0.2712 0.2712 0.3616 (  4784 PWs)   bands (ev):

   -69.5342 -39.4615 -35.6307 -35.6198 -35.6193 -15.8569 -15.7690 -15.7687
    13.9789  14.8411  15.1489  15.3181  15.4157  15.6254  18.2124  18.2600
    19.2671  19.9001

          k = 0.2712 0.2712 0.4520 (  4788 PWs)   bands (ev):

   -69.5337 -39.4558 -35.6368 -35.6200 -35.6190 -15.9034 -15.7651 -15.7622
    14.2115  14.6143  15.1394  15.2655  15.5836  16.0473  17.8158  18.1364
    19.2144  20.2316

          k = 0.2712 0.3616 0.3616 (  4793 PWs)   bands (ev):

   -69.5334 -39.4517 -35.6313 -35.6299 -35.6187 -15.8491 -15.8455 -15.7612
    14.2925  14.7074  15.1966  15.2850  15.5038  15.7428  18.0539  18.0552
    19.5635  20.0956

          k = 0.2712 0.3616 0.4520 (  4775 PWs)   bands (ev):

   -69.5329 -39.4459 -35.6371 -35.6306 -35.6182 -15.8935 -15.8416 -15.7566
    14.2916  14.6208  15.1576  15.2073  15.7793  16.1374  17.7213  17.9727
    19.6244  20.4132

          k = 0.2712 0.4520 0.4520 (  4781 PWs)   bands (ev):

   -69.5325 -39.4401 -35.6374 -35.6372 -35.6175 -15.8878 -15.8873 -15.7524
    14.2244  14.5807  15.0916  15.1179  16.2907  16.3196  17.5550  17.8140
    19.7972  20.6995

          k = 0.3616 0.3616 0.3616 (  4782 PWs)   bands (ev):

   -69.5326 -39.4423 -35.6298 -35.6298 -35.6296 -15.8399 -15.8395 -15.8395
    14.7063  15.0050  15.1504  15.1504  15.5044  15.5044  17.8838  17.8838
    20.1012  20.1012

          k = 0.3616 0.3616 0.4520 (  4768 PWs)   bands (ev):

   -69.5321 -39.4367 -35.6363 -35.6295 -35.6290 -15.8859 -15.8359 -15.8342
    14.7047  14.8672  15.1756  15.3051  15.4773  15.8414  17.6297  17.8086
    20.1136  20.5032

          k = 0.3616 0.4520 0.4520 (  4764 PWs)   bands (ev):

   -69.5317 -39.4312 -35.6358 -35.6358 -35.6284 -15.8814 -15.8813 -15.8312
    14.8101  14.9484  15.0915  15.1928  15.7723  15.8245  17.5154  17.6770
    20.3302  20.7280

          k = 0.4520 0.4520 0.4520 (  4752 PWs)   bands (ev):

   -69.5312 -39.4260 -35.6350 -35.6349 -35.6349 -15.8778 -15.8778 -15.8774
    15.0331  15.1704  15.1704  15.4718  15.4718  15.4879  17.5059  17.5059
    20.7442  20.7442

     the Fermi energy is    17.2409 ev

!    total energy              =    -448.58705213 Ry
     estimated scf accuracy    <          3.4E-09 Ry
     smearing contrib. (-TS)   =       0.00006556 Ry
     internal energy E=F+TS    =    -448.58711769 Ry

     The total energy is F=E-TS. E is the sum of the following terms:
     one-electron contribution =    -153.58309993 Ry
     hartree contribution      =      92.37676979 Ry
     xc contribution           =     -52.85811610 Ry
     ewald contribution        =    -258.36917148 Ry
     one-center paw contrib.   =     -76.15349997 Ry

     convergence has been achieved in   8 iterations

     negative rho (up, down):  9.755E-04 0.000E+00

     Forces acting on atoms (cartesian axes, Ry/au):

     atom    1 type  2   force =     0.00000000    0.00000000    0.00000000
     atom    2 type  1   force =     0.00000000    0.00000000    0.00000000

     Total force =     0.000000     Total SCF correction =     0.000000


     Computing stress (Cartesian axis) and pressure


     negative rho (up, down):  9.755E-04 0.000E+00
          total   stress  (Ry/bohr**3)                   (kbar)     P=       -0.75
  -0.00000510   0.00000000   0.00000000           -0.75        0.00        0.00
   0.00000000  -0.00000510   0.00000000            0.00       -0.75        0.00
   0.00000000   0.00000000  -0.00000510            0.00        0.00       -0.75

     Energy error            =      3.1E-04 Ry
     Gradient error          =      0.0E+00 Ry/Bohr
     Cell gradient error     =      7.5E-01 kbar

     number of scf cycles    =   2
     number of bfgs steps    =   1

     enthalpy           old  =    -448.5867419398 Ry
     enthalpy           new  =    -448.5870521252 Ry

     CASE: enthalpy          _new < enthalpy          _old

     new trust radius        =       0.0003308737 bohr
     new conv_thr            =            1.0E-10 Ry

     new unit-cell volume =    174.09622 a.u.^3 (    25.79840 Ang^3 )
     density =      6.67552 g/cm^3

CELL_PARAMETERS (alat=  5.55330037)
   1.005491988   0.000000000   0.000000000
   0.000000000   1.005491988   0.000000000
   0.000000000   0.000000000   1.005491988

ATOMIC_POSITIONS (crystal)
Fe               0.5000000000        0.5000000000        0.5000000000
Ti               0.0000000000        0.0000000000        0.0000000000



     Writing config-only to output data dir ./outputs/TiFe.save/ :
     XML data file     NEW-OLD atomic charge density approx. for the potential
     New effective cutoffs (rho, wfc): 1106.65  138.47

     Check: negative core charge=   -0.000005

     negative rho (up, down):  9.754E-04 0.000E+00

     total cpu time spent up to now is       58.8 secs

     per-process dynamical memory:   140.6 Mb

     Self-consistent Calculation

     iteration #  1     ecut=   140.00 Ry     beta= 0.70
     Davidson diagonalization with overlap
     ethr =  1.00E-06,  avg # of iterations =  2.0

     Threshold (ethr) on eigenvalues was too large:
     Diagonalizing with lowered threshold

     Davidson diagonalization with overlap
     ethr =  2.40E-09,  avg # of iterations =  1.9

     negative rho (up, down):  9.750E-04 0.000E+00

     total cpu time spent up to now is       61.2 secs

     total energy              =    -448.58705175 Ry
     estimated scf accuracy    <       0.00000076 Ry

     iteration #  2     ecut=   140.00 Ry     beta= 0.70
     Davidson diagonalization with overlap
     ethr =  2.72E-09,  avg # of iterations =  4.8

     negative rho (up, down):  9.756E-04 0.000E+00

     total cpu time spent up to now is       62.7 secs

     total energy              =    -448.58704756 Ry
     estimated scf accuracy    <       0.00008959 Ry

     iteration #  3     ecut=   140.00 Ry     beta= 0.70
     Davidson diagonalization with overlap
     ethr =  2.72E-09,  avg # of iterations =  4.8

     negative rho (up, down):  9.755E-04 0.000E+00

     total cpu time spent up to now is       64.1 secs

     total energy              =    -448.58705235 Ry
     estimated scf accuracy    <       0.00000004 Ry

     iteration #  4     ecut=   140.00 Ry     beta= 0.70
     Davidson diagonalization with overlap
     ethr =  1.40E-10,  avg # of iterations =  4.3

     negative rho (up, down):  9.755E-04 0.000E+00

     total cpu time spent up to now is       65.6 secs

     total energy              =    -448.58705236 Ry
     estimated scf accuracy    <       0.00000001 Ry

     iteration #  5     ecut=   140.00 Ry     beta= 0.70
     Davidson diagonalization with overlap
     ethr =  5.16E-11,  avg # of iterations =  1.5

     negative rho (up, down):  9.756E-04 0.000E+00

     total cpu time spent up to now is       66.7 secs

     total energy              =    -448.58705237 Ry
     estimated scf accuracy    <          5.4E-09 Ry

     iteration #  6     ecut=   140.00 Ry     beta= 0.70
     Davidson diagonalization with overlap
     ethr =  1.95E-11,  avg # of iterations =  2.8

     negative rho (up, down):  9.755E-04 0.000E+00

     total cpu time spent up to now is       67.8 secs

     End of self-consistent calculation

          k = 0.0000 0.0000 0.0000 (  4801 PWs)   bands (ev):

   -69.5330 -39.5189 -35.5938 -35.5938 -35.5938 -15.6177 -15.6177 -15.6177
     9.8713  13.6169  13.6169  16.3437  16.3437  16.3437  18.6388  18.6388
    20.5334  20.5334

          k = 0.0000 0.0000 0.0904 (  4813 PWs)   bands (ev):

   -69.5328 -39.5169 -35.5962 -35.5934 -35.5934 -15.6453 -15.6161 -15.6161
    10.0416  13.6986  13.7035  16.3311  16.3311  16.3808  18.5362  18.6772
    20.2889  20.2889

          k = 0.0000 0.0000 0.1808 (  4809 PWs)   bands (ev):

   -69.5321 -39.5115 -35.6026 -35.5925 -35.5925 -15.7188 -15.6116 -15.6116
    10.5360  13.9273  13.9376  16.3023  16.3023  16.4846  18.2395  18.7635
    19.7192  19.7192

          k = 0.0000 0.0000 0.2712 (  4789 PWs)   bands (ev):

   -69.5312 -39.5043 -35.6110 -35.5912 -35.5912 -15.8140 -15.6057 -15.6057
    11.3048  14.1795  14.3135  16.2772  16.2772  16.6320  17.7848  18.7923
    19.0883  19.0883

          k = 0.0000 0.0000 0.3617 (  4805 PWs)   bands (ev):

   -69.5304 -39.4978 -35.6187 -35.5901 -35.5901 -15.9003 -15.6003 -15.6003
    12.2561  14.2761  14.7786  16.2716  16.2716  16.7821  17.2443  18.5718
    18.5718  18.5989

          k = 0.0000 0.0000 0.4521 (  4797 PWs)   bands (ev):

   -69.5299 -39.4939 -35.6232 -35.5894 -35.5894 -15.9512 -15.5970 -15.5970
    13.2215  13.9996  15.1951  16.2795  16.2795  16.7817  16.8799  18.2798
    18.2798  18.2882

          k = 0.0000 0.0904 0.0904 (  4801 PWs)   bands (ev):

   -69.5325 -39.5148 -35.5970 -35.5949 -35.5931 -15.6463 -15.6405 -15.6143
    10.2085  13.7758  13.7911  16.2510  16.3109  16.4743  18.5213  18.6487
    20.0204  20.0443

          k = 0.0000 0.0904 0.1808 (  4809 PWs)   bands (ev):

   -69.5318 -39.5090 -35.6030 -35.5948 -35.5921 -15.7165 -15.6379 -15.6096
    10.6924  13.9873  14.0309  16.1725  16.2614  16.5888  18.2930  18.7240
    19.4887  19.5224

          k = 0.0000 0.0904 0.2712 (  4794 PWs)   bands (ev):

   -69.5309 -39.5015 -35.6116 -35.5941 -35.5909 -15.8106 -15.6313 -15.6035
    11.4414  14.2414  14.3793  16.1296  16.2055  16.6718  17.9059  18.6918
    18.9981  19.0341

          k = 0.0000 0.0904 0.3617 (  4792 PWs)   bands (ev):

   -69.5301 -39.4946 -35.6194 -35.5933 -35.5897 -15.8961 -15.6252 -15.5978
    12.3611  14.3285  14.8083  16.1343  16.1550  16.6784  17.4626  18.2891
    18.7077  18.8428

          k = 0.0000 0.0904 0.4521 (  4809 PWs)   bands (ev):

   -69.5296 -39.4905 -35.6240 -35.5929 -35.5891 -15.9465 -15.6215 -15.5945
    13.2827  14.0484  15.1888  16.0882  16.1693  16.6262  17.1431  18.0002
    18.5761  18.6505

          k = 0.0000 0.1808 0.1808 (  4801 PWs)   bands (ev):

   -69.5312 -39.5025 -35.6056 -35.5995 -35.5912 -15.7173 -15.7012 -15.6044
    11.1418  14.1297  14.3006  16.0026  16.1674  16.6636  18.3433  18.6841
    18.9825  19.2062

          k = 0.0000 0.1808 0.2712 (  4781 PWs)   bands (ev):

   -69.5303 -39.4939 -35.6132 -35.6015 -35.5900 -15.8020 -15.6993 -15.5976
    11.8234  14.2885  14.6678  15.8842  16.0768  16.5897  18.1748  18.4430
    18.8390  19.0314

          k = 0.0000 0.1808 0.3617 (  4794 PWs)   bands (ev):

   -69.5295 -39.4860 -35.6213 -35.6021 -35.5889 -15.8850 -15.6915 -15.5913
    12.6288  14.3140  15.0455  15.8487  16.0457  16.3856  17.8797  18.1090
    18.9575  19.0500

          k = 0.0000 0.1808 0.4521 (  4800 PWs)   bands (ev):

   -69.5290 -39.4813 -35.6262 -35.6024 -35.5883 -15.9340 -15.6867 -15.5876
    13.3820  14.0688  15.3221  15.8975  16.0748  16.1736  17.7127  17.8681
    18.9743  19.1438

          k = 0.0000 0.2712 0.2712 (  4801 PWs)   bands (ev):

   -69.5294 -39.4839 -35.6169 -35.6097 -35.5889 -15.7985 -15.7796 -15.5899
    12.3654  14.2648  15.1053  15.6809  16.0271  16.3288  18.2245  18.3993
    18.7398  19.2001

          k = 0.0000 0.2712 0.3617 (  4801 PWs)   bands (ev):

   -69.5286 -39.4746 -35.6239 -35.6135 -35.5878 -15.8704 -15.7773 -15.5828
    12.9306  14.1420  15.5384  15.5736  16.0124  16.1730  18.0438  18.3777
    18.9032  19.4689

          k = 0.0000 0.2712 0.4521 (  4782 PWs)   bands (ev):

   -69.5281 -39.4692 -35.6291 -35.6149 -35.5872 -15.9175 -15.7712 -15.5786
    13.3628  13.9458  15.5857  15.7563  15.7758  16.5121  17.8019  18.3353
    19.1054  19.7102

          k = 0.0000 0.3617 0.3617 (  4791 PWs)   bands (ev):

   -69.5278 -39.4642 -35.6273 -35.6230 -35.5868 -15.8616 -15.8507 -15.5749
    13.1404  13.9346  15.3912  15.6736  16.1288  16.5565  18.1643  18.7288
    18.7398  19.8638

          k = 0.0000 0.3617 0.4521 (  4789 PWs)   bands (ev):

   -69.5273 -39.4580 -35.6317 -35.6263 -35.5862 -15.9024 -15.8479 -15.5703
    13.2372  13.7932  15.3405  15.4396  16.4874  17.1883  17.9275  18.7848
    18.9459  20.1595

          k = 0.0000 0.4521 0.4521 (  4782 PWs)   bands (ev):

   -69.5268 -39.4514 -35.6335 -35.6329 -35.5856 -15.8941 -15.8925 -15.5653
    13.1361  13.7010  15.2224  15.2556  17.1732  17.6348  18.2965  18.4773
    19.0437  20.4245

          k = 0.0904 0.0904 0.0904 (  4812 PWs)   bands (ev):

   -69.5323 -39.5125 -35.5966 -35.5966 -35.5937 -15.6466 -15.6388 -15.6388
    10.3726  13.8646  13.8646  16.2289  16.2289  16.5492  18.5718  18.5718
    19.6126  20.2687

          k = 0.0904 0.0904 0.1808 (  4793 PWs)   bands (ev):

   -69.5316 -39.5065 -35.6032 -35.5956 -35.5936 -15.7141 -15.6375 -15.6342
    10.8474  14.0782  14.0927  16.1210  16.1704  16.6289  18.3498  18.6872
    19.1495  19.6962

          k = 0.0904 0.0904 0.2712 (  4789 PWs)   bands (ev):

   -69.5307 -39.4986 -35.6119 -35.5943 -35.5933 -15.8074 -15.6299 -15.6282
    11.5793  14.3411  14.4093  16.0631  16.0910  16.6242  18.0145  18.6369
    18.9573  19.0746

          k = 0.0904 0.0904 0.3617 (  4799 PWs)   bands (ev):

   -69.5299 -39.4914 -35.6200 -35.5932 -35.5929 -15.8921 -15.6228 -15.6227
    12.4711  14.4102  14.8089  15.9931  16.0918  16.5412  17.6393  18.3550
    18.5800  19.0485

          k = 0.0904 0.0904 0.4521 (  4810 PWs)   bands (ev):

   -69.5294 -39.4871 -35.6247 -35.5927 -35.5925 -15.9420 -15.6194 -15.6186
    13.3548  14.1161  15.1586  15.8714  16.2026  16.4545  17.3696  18.0724
    18.3094  19.1476

          k = 0.0904 0.1808 0.1808 (  4797 PWs)   bands (ev):

   -69.5309 -39.4998 -35.6052 -35.6002 -35.5937 -15.7143 -15.6994 -15.6303
    11.2923  14.2305  14.3498  15.9663  16.0631  16.5920  18.4109  18.6562
    18.8722  19.4189

          k = 0.0904 0.1808 0.2712 (  4797 PWs)   bands (ev):

   -69.5300 -39.4910 -35.6132 -35.6016 -35.5930 -15.7988 -15.6970 -15.6230
    11.9646  14.4049  14.6858  15.8413  15.9652  16.4150  18.2620  18.5612
    18.8751  19.0877

          k = 0.0904 0.1808 0.3617 (  4803 PWs)   bands (ev):

   -69.5292 -39.4829 -35.6216 -35.6019 -35.5923 -15.8814 -15.6891 -15.6163
    12.7536  14.4379  15.0009  15.7685  15.9555  16.2364  18.0307  18.2207
    18.7366  19.3428

          k = 0.0904 0.1808 0.4521 (  4803 PWs)   bands (ev):

   -69.5287 -39.4780 -35.6266 -35.6021 -35.5918 -15.9301 -15.6843 -15.6122
    13.4842  14.1775  15.2312  15.7007  16.0558  16.1770  17.8596  17.9369
    18.5380  19.7202

          k = 0.0904 0.2712 0.2712 (  4802 PWs)   bands (ev):

   -69.5291 -39.4809 -35.6165 -35.6100 -35.5921 -15.7949 -15.7778 -15.6151
    12.5101  14.3859  15.1147  15.6429  15.9017  16.1214  18.3392  18.5523
    18.7220  19.3297

          k = 0.0904 0.2712 0.3617 (  4797 PWs)   bands (ev):

   -69.5283 -39.4717 -35.6238 -35.6134 -35.5912 -15.8674 -15.7750 -15.6078
    13.0720  14.2647  15.4759  15.5347  15.8985  16.0427  18.1241  18.4657
    18.7907  19.7315

          k = 0.0904 0.2712 0.4521 (  4778 PWs)   bands (ev):

   -69.5279 -39.4661 -35.6291 -35.6145 -35.5907 -15.9144 -15.7690 -15.6034
    13.4904  14.0696  15.5040  15.5504  15.8459  16.4235  17.8380  18.4372
    18.7191  20.2034

          k = 0.0904 0.3617 0.3617 (  4782 PWs)   bands (ev):

   -69.5275 -39.4613 -35.6268 -35.6230 -35.5902 -15.8587 -15.8489 -15.5999
    13.2839  14.0565  15.3612  15.5861  16.0869  16.3879  18.1307  18.6187
    18.8275  20.1675

          k = 0.0904 0.3617 0.4521 (  4779 PWs)   bands (ev):

   -69.5271 -39.4552 -35.6315 -35.6259 -35.5896 -15.9000 -15.8459 -15.5953
    13.3714  13.9189  15.3084  15.3891  16.4130  17.0143  17.8876  18.5808
    18.9178  20.3964

          k = 0.0904 0.4521 0.4521 (  4772 PWs)   bands (ev):

   -69.5266 -39.4486 -35.6330 -35.6325 -35.5890 -15.8921 -15.8907 -15.5904
    13.2708  13.8268  15.2001  15.2289  17.1148  17.4905  18.0571  18.1486
    19.1205  20.6156

          k = 0.1808 0.1808 0.1808 (  4806 PWs)   bands (ev):

   -69.5302 -39.4926 -35.6042 -35.6042 -35.5981 -15.7105 -15.6946 -15.6946
    11.7215  14.4894  14.4894  15.8694  15.8694  16.3347  18.5742  18.5742
    18.9266  19.6557

          k = 0.1808 0.1808 0.2712 (  4797 PWs)   bands (ev):

   -69.5294 -39.4832 -35.6133 -35.6028 -35.6000 -15.7906 -15.6930 -15.6884
    12.3597  14.6949  14.7499  15.7347  15.7391  16.0288  18.4500  18.6435
    19.0596  19.2246

          k = 0.1808 0.1808 0.3617 (  4789 PWs)   bands (ev):

   -69.5285 -39.4745 -35.6223 -35.6015 -35.6010 -15.8718 -15.6829 -15.6826
    13.0829  14.7142  14.9243  15.6011  15.7659  15.9590  18.3196  18.3802
    18.5953  19.7721

          k = 0.1808 0.1808 0.4521 (  4794 PWs)   bands (ev):

   -69.5281 -39.4694 -35.6278 -35.6016 -35.6008 -15.9198 -15.6792 -15.6767
    13.7141  14.3838  15.1108  15.4811  15.8775  16.1307  17.9754  18.2479
    18.3288  20.1367

          k = 0.1808 0.2712 0.2712 (  4800 PWs)   bands (ev):

   -69.5285 -39.4730 -35.6153 -35.6108 -35.6008 -15.7854 -15.7728 -15.6822
    12.9155  14.7160  15.1362  15.5448  15.6205  15.6966  18.4659  18.6452
    18.9649  19.6913

          k = 0.1808 0.2712 0.3617 (  4799 PWs)   bands (ev):

   -69.5277 -39.4636 -35.6235 -35.6130 -35.6003 -15.8593 -15.7688 -15.6743
    13.4652  14.5865  15.2833  15.4311  15.6687  15.7814  18.2340  18.4765
    18.8599  19.9919

          k = 0.1808 0.2712 0.4521 (  4793 PWs)   bands (ev):

   -69.5272 -39.4580 -35.6293 -35.6135 -35.6000 -15.9062 -15.7631 -15.6696
    13.8350  14.3761  15.2616  15.3749  15.7500  16.2138  17.8793  18.3189
    18.7715  20.2070

          k = 0.1808 0.3617 0.3617 (  4787 PWs)   bands (ev):

   -69.5269 -39.4535 -35.6256 -35.6228 -35.5994 -15.8510 -15.8439 -15.6666
    13.6938  14.3748  15.2859  15.3968  15.9577  15.9744  18.1088  18.3356
    19.1177  20.1517

          k = 0.1808 0.3617 0.4521 (  4771 PWs)   bands (ev):

   -69.5264 -39.4475 -35.6307 -35.6248 -35.5988 -15.8937 -15.8406 -15.6619
    13.7527  14.2481  15.2320  15.2775  16.1682  16.5903  17.8284  18.1837
    19.1923  20.3874

          k = 0.1808 0.4521 0.4521 (  4773 PWs)   bands (ev):

   -69.5259 -39.4413 -35.6317 -35.6313 -35.5982 -15.8867 -15.8857 -15.6574
    13.6564  14.1621  15.1468  15.1676  16.8387  16.9376  17.7195  17.8992
    19.3759  20.6723

          k = 0.2712 0.2712 0.2712 (  4800 PWs)   bands (ev):

   -69.5276 -39.4626 -35.6138 -35.6138 -35.6101 -15.7757 -15.7664 -15.7664
    13.4815  15.1540  15.1540  15.2271  15.4248  15.4248  18.4727  18.4727
    19.4244  19.4244

          k = 0.2712 0.2712 0.3617 (  4784 PWs)   bands (ev):

   -69.5268 -39.4530 -35.6234 -35.6125 -35.6120 -15.8488 -15.7608 -15.7604
    13.9860  14.8476  15.1554  15.3248  15.4225  15.6323  18.2206  18.2681
    19.2754  19.9089

          k = 0.2712 0.2712 0.4521 (  4788 PWs)   bands (ev):

   -69.5263 -39.4473 -35.6295 -35.6126 -35.6117 -15.8954 -15.7569 -15.7540
    14.2181  14.6209  15.1459  15.2722  15.5907  16.0544  17.8238  18.1444
    19.2227  20.2405

          k = 0.2712 0.3617 0.3617 (  4793 PWs)   bands (ev):

   -69.5260 -39.4433 -35.6240 -35.6226 -35.6114 -15.8409 -15.8374 -15.7530
    14.2993  14.7140  15.2031  15.2917  15.5107  15.7498  18.0619  18.0632
    19.5721  20.1045

          k = 0.2712 0.3617 0.4521 (  4775 PWs)   bands (ev):

   -69.5256 -39.4375 -35.6298 -35.6233 -35.6109 -15.8854 -15.8335 -15.7484
    14.2980  14.6273  15.1641  15.2139  15.7864  16.1447  17.7292  17.9807
    19.6330  20.4222

          k = 0.2712 0.4521 0.4521 (  4781 PWs)   bands (ev):

   -69.5251 -39.4317 -35.6301 -35.6299 -35.6102 -15.8797 -15.8792 -15.7442
    14.2307  14.5872  15.0981  15.1245  16.2982  16.3270  17.5628  17.8219
    19.8059  20.7086

          k = 0.3617 0.3617 0.3617 (  4782 PWs)   bands (ev):

   -69.5252 -39.4339 -35.6225 -35.6225 -35.6223 -15.8318 -15.8314 -15.8314
    14.7127  15.0122  15.1570  15.1570  15.5113  15.5113  17.8917  17.8917
    20.1100  20.1100

          k = 0.3617 0.3617 0.4521 (  4768 PWs)   bands (ev):

   -69.5248 -39.4283 -35.6290 -35.6222 -35.6217 -15.8778 -15.8278 -15.8261
    14.7111  14.8738  15.1823  15.3118  15.4844  15.8484  17.6375  17.8165
    20.1224  20.5123

          k = 0.3617 0.4521 0.4521 (  4764 PWs)   bands (ev):

   -69.5243 -39.4228 -35.6285 -35.6285 -35.6211 -15.8733 -15.8732 -15.8230
    14.8165  14.9551  15.0981  15.1995  15.7794  15.8316  17.5232  17.6848
    20.3392  20.7372

          k = 0.4521 0.4521 0.4521 (  4752 PWs)   bands (ev):

   -69.5238 -39.4175 -35.6277 -35.6276 -35.6276 -15.8697 -15.8697 -15.8693
    15.0398  15.1772  15.1772  15.4786  15.4786  15.4948  17.5137  17.5137
    20.7534  20.7534

     the Fermi energy is    17.2487 ev

!    total energy              =    -448.58705237 Ry
     estimated scf accuracy    <          3.1E-11 Ry
     smearing contrib. (-TS)   =       0.00006528 Ry
     internal energy E=F+TS    =    -448.58711764 Ry

     The total energy is F=E-TS. E is the sum of the following terms:
     one-electron contribution =    -153.53247138 Ry
     hartree contribution      =      92.35909468 Ry
     xc contribution           =     -52.85867406 Ry
     ewald contribution        =    -258.40156446 Ry
     one-center paw contrib.   =     -76.15350242 Ry

     convergence has been achieved in   6 iterations

     negative rho (up, down):  9.755E-04 0.000E+00

     Forces acting on atoms (cartesian axes, Ry/au):

     atom    1 type  2   force =     0.00000000    0.00000000    0.00000000
     atom    2 type  1   force =     0.00000000    0.00000000    0.00000000

     Total force =     0.000000     Total SCF correction =     0.000000


     Computing stress (Cartesian axis) and pressure


     negative rho (up, down):  9.755E-04 0.000E+00
          total   stress  (Ry/bohr**3)                   (kbar)     P=       -0.13
  -0.00000086   0.00000000   0.00000000           -0.13        0.00        0.00
   0.00000000  -0.00000086   0.00000000            0.00       -0.13        0.00
   0.00000000   0.00000000  -0.00000086            0.00        0.00       -0.13

     Energy error            =      2.4E-07 Ry
     Gradient error          =      0.0E+00 Ry/Bohr
     Cell gradient error     =      1.3E-01 kbar

     bfgs converged in   3 scf cycles and   2 bfgs steps
     (criteria: energy <  1.0E-04 Ry, force <  1.0E-03 Ry/Bohr, cell <  5.0E-01 kbar)

     End of BFGS Geometry Optimization

     Final enthalpy           =    -448.5870523661 Ry

     File ./outputs/TiFe.bfgs deleted, as requested
Begin final coordinates
     new unit-cell volume =    174.09622 a.u.^3 (    25.79840 Ang^3 )
     density =      6.67552 g/cm^3

CELL_PARAMETERS (alat=  5.55330037)
   1.005491988   0.000000000   0.000000000
   0.000000000   1.005491988   0.000000000
   0.000000000   0.000000000   1.005491988

ATOMIC_POSITIONS (crystal)
Fe               0.5000000000        0.5000000000        0.5000000000
Ti               0.0000000000        0.0000000000        0.0000000000
End final coordinates



     Writing config-only to output data dir ./outputs/TiFe.save/ :
     XML data file
     Final scf calculation at the relaxed structure.
     The G-vectors are recalculated for the final unit cell
     Results may differ from those at the preceding step.

     Parallelization info
     --------------------
     sticks:   dense  smooth     PW     G-vecs:    dense   smooth      PW
     Min         347     172     50                13774     4875     752
     Max         349     174     51                13775     4876     755
     Sum        2785    1389    401               110195    39007    6031

     Using Slab Decomposition



     bravais-lattice index     =            0
     lattice parameter (alat)  =       5.5533  a.u.
     unit-cell volume          =     174.0962 (a.u.)^3
     number of atoms/cell      =            2
     number of atomic types    =            2
     number of electrons       =        28.00
     number of Kohn-Sham states=           18
     kinetic-energy cutoff     =     140.0000  Ry
     charge density cutoff     =    1120.0000  Ry
     scf convergence threshold =      1.0E-10
     mixing beta               =       0.7000
     number of iterations used =            8  plain     mixing
     press convergence thresh. =      5.0E-01
     Exchange-correlation= PBE
                           (   1   4   3   4   0   0   0)

     celldm(1)=   5.553300  celldm(2)=   0.000000  celldm(3)=   0.000000
     celldm(4)=   0.000000  celldm(5)=   0.000000  celldm(6)=   0.000000

     crystal axes: (cart. coord. in units of alat)
               a(1) = (   1.005492   0.000000   0.000000 )  
               a(2) = (   0.000000   1.005492   0.000000 )  
               a(3) = (   0.000000   0.000000   1.005492 )  

     reciprocal axes: (cart. coord. in units 2 pi/alat)
               b(1) = (  0.994538  0.000000  0.000000 )  
               b(2) = (  0.000000  0.994538  0.000000 )  
               b(3) = (  0.000000  0.000000  0.994538 )  


     PseudoPot. # 1 for Ti read from file:
     /vscmnt/antwerpen_storage_home/_user_antwerpen/211/vsc21140/pseudos/ti_pbe_v1.4.uspp.F.UPF
     MD5 check sum: 88a00a6731bd790ddea75d31a80cb452
     Pseudo is Ultrasoft + core correction, Zval = 12.0
     Generated by new atomic code, or converted to UPF format
     Using radial grid of  851 points,  6 beta functions with: 
                l(1) =   0
                l(2) =   0
                l(3) =   1
                l(4) =   1
                l(5) =   2
                l(6) =   2
     Q(r) pseudized with  6 coefficients,  rinner =    1.000   1.000   1.000
                                                       1.000   1.000

     PseudoPot. # 2 for Fe read from file:
     /vscmnt/antwerpen_storage_home/_user_antwerpen/211/vsc21140/pseudos/Fe.pbe-spn-kjpaw_psl.0.2.1.UPF
     MD5 check sum: e86618425769142926afa95317d90200
     Pseudo is Projector augmented-wave + core cor, Zval = 16.0
     Generated using "atomic" code by A. Dal Corso  v.5.0.99 svn rev. 10869
     Shape of augmentation charge: PSQ
     Using radial grid of 1191 points,  6 beta functions with: 
                l(1) =   0
                l(2) =   0
                l(3) =   1
                l(4) =   1
                l(5) =   2
                l(6) =   2
     Q(r) pseudized with 0 coefficients 


     atomic species   valence    mass     pseudopotential
     Ti               12.00    47.86700     Ti( 1.00)
     Fe               16.00    55.84500     Fe( 1.00)

     48 Sym. Ops., with inversion, found



   Cartesian axes

     site n.     atom                  positions (alat units)
         1        Fe     tau(   1) = (   0.5027460   0.5027460   0.5027460  )
         2        Ti     tau(   2) = (   0.0000000   0.0000000   0.0000000  )

     number of k points=    56  Marzari-Vanderbilt smearing, width (Ry)=  0.0050
                       cart. coord. in units 2pi/alat
        k(    1) = (   0.0000000   0.0000000   0.0000000), wk =   0.0015026
        k(    2) = (   0.0000000   0.0000000   0.0904125), wk =   0.0090158
        k(    3) = (   0.0000000   0.0000000   0.1808251), wk =   0.0090158
        k(    4) = (   0.0000000   0.0000000   0.2712376), wk =   0.0090158
        k(    5) = (   0.0000000   0.0000000   0.3616502), wk =   0.0090158
        k(    6) = (   0.0000000   0.0000000   0.4520627), wk =   0.0090158
        k(    7) = (   0.0000000   0.0904125   0.0904125), wk =   0.0180316
        k(    8) = (   0.0000000   0.0904125   0.1808251), wk =   0.0360631
        k(    9) = (   0.0000000   0.0904125   0.2712376), wk =   0.0360631
        k(   10) = (   0.0000000   0.0904125   0.3616502), wk =   0.0360631
        k(   11) = (   0.0000000   0.0904125   0.4520627), wk =   0.0360631
        k(   12) = (   0.0000000   0.1808251   0.1808251), wk =   0.0180316
        k(   13) = (   0.0000000   0.1808251   0.2712376), wk =   0.0360631
        k(   14) = (   0.0000000   0.1808251   0.3616502), wk =   0.0360631
        k(   15) = (   0.0000000   0.1808251   0.4520627), wk =   0.0360631
        k(   16) = (   0.0000000   0.2712376   0.2712376), wk =   0.0180316
        k(   17) = (   0.0000000   0.2712376   0.3616502), wk =   0.0360631
        k(   18) = (   0.0000000   0.2712376   0.4520627), wk =   0.0360631
        k(   19) = (   0.0000000   0.3616502   0.3616502), wk =   0.0180316
        k(   20) = (   0.0000000   0.3616502   0.4520627), wk =   0.0360631
        k(   21) = (   0.0000000   0.4520627   0.4520627), wk =   0.0180316
        k(   22) = (   0.0904125   0.0904125   0.0904125), wk =   0.0120210
        k(   23) = (   0.0904125   0.0904125   0.1808251), wk =   0.0360631
[...]

     total energy              =    -448.58705151 Ry
     estimated scf accuracy    <       0.00002576 Ry

     iteration # 23     ecut=   140.00 Ry     beta= 0.70
     Davidson diagonalization with overlap
     ethr =  9.20E-08,  avg # of iterations =  4.2

     negative rho (up, down):  9.762E-04 0.000E+00

     total cpu time spent up to now is      103.6 secs

     WARNING: integrated charge=    27.99912615, expected=    28.00000000

     total energy              =    -448.58705706 Ry
     estimated scf accuracy    <       0.00002269 Ry

     iteration # 24     ecut=   140.00 Ry     beta= 0.70
     Davidson diagonalization with overlap
     ethr =  8.10E-08,  avg # of iterations =  1.1

     negative rho (up, down):  9.760E-04 0.000E+00

     total cpu time spent up to now is      104.7 secs

     WARNING: integrated charge=    27.99973856, expected=    28.00000000

     total energy              =    -448.58705809 Ry
     estimated scf accuracy    <       0.00000060 Ry

     iteration # 25     ecut=   140.00 Ry     beta= 0.70
     Davidson diagonalization with overlap
     ethr =  2.16E-09,  avg # of iterations =  4.6

     negative rho (up, down):  9.759E-04 0.000E+00

     total cpu time spent up to now is      106.2 secs

     WARNING: integrated charge=    27.99995870, expected=    28.00000000

     total energy              =    -448.58705831 Ry
     estimated scf accuracy    <       0.00000026 Ry

     iteration # 26     ecut=   140.00 Ry     beta= 0.70
     Davidson diagonalization with overlap
     ethr =  9.27E-10,  avg # of iterations =  1.8

     negative rho (up, down):  9.760E-04 0.000E+00

     total cpu time spent up to now is      107.3 secs

     WARNING: integrated charge=    28.00002007, expected=    28.00000000

     total energy              =    -448.58705833 Ry
     estimated scf accuracy    <       0.00000002 Ry

     iteration # 27     ecut=   140.00 Ry     beta= 0.70
     Davidson diagonalization with overlap
     ethr =  7.77E-11,  avg # of iterations =  4.5

     negative rho (up, down):  9.759E-04 0.000E+00

     total cpu time spent up to now is      108.7 secs

     total energy              =    -448.58705833 Ry
     estimated scf accuracy    <       0.00000001 Ry

     iteration # 28     ecut=   140.00 Ry     beta= 0.70
     Davidson diagonalization with overlap
     ethr =  5.33E-11,  avg # of iterations =  1.4

     negative rho (up, down):  9.760E-04 0.000E+00

     total cpu time spent up to now is      109.8 secs

     total energy              =    -448.58705833 Ry
     estimated scf accuracy    <          4.4E-10 Ry

     iteration # 29     ecut=   140.00 Ry     beta= 0.70
     Davidson diagonalization with overlap
     ethr =  1.57E-12,  avg # of iterations =  4.5

     negative rho (up, down):  9.760E-04 0.000E+00

     total cpu time spent up to now is      111.3 secs

     End of self-consistent calculation

          k = 0.0000 0.0000 0.0000 (  4945 PWs)   bands (ev):

   -69.5330 -39.5189 -35.5938 -35.5938 -35.5938 -15.6177 -15.6177 -15.6177
     9.8713  13.6169  13.6169  16.3437  16.3437  16.3437  18.6388  18.6388
    20.5334  20.5334

          k = 0.0000 0.0000 0.0904 (  4893 PWs)   bands (ev):

   -69.5328 -39.5169 -35.5962 -35.5934 -35.5934 -15.6453 -15.6160 -15.6160
    10.0415  13.6986  13.7035  16.3312  16.3312  16.3808  18.5362  18.6772
    20.2889  20.2889

          k = 0.0000 0.0000 0.1808 (  4877 PWs)   bands (ev):

   -69.5321 -39.5114 -35.6026 -35.5925 -35.5925 -15.7188 -15.6115 -15.6115
    10.5360  13.9273  13.9376  16.3023  16.3023  16.4846  18.2395  18.7635
    19.7192  19.7192

          k = 0.0000 0.0000 0.2712 (  4861 PWs)   bands (ev):

   -69.5312 -39.5043 -35.6110 -35.5912 -35.5912 -15.8139 -15.6057 -15.6057
    11.3048  14.1795  14.3135  16.2773  16.2773  16.6320  17.7848  18.7923
    19.0883  19.0883

          k = 0.0000 0.0000 0.3617 (  4869 PWs)   bands (ev):

   -69.5304 -39.4977 -35.6187 -35.5900 -35.5900 -15.9003 -15.6002 -15.6002
    12.2561  14.2761  14.7786  16.2716  16.2716  16.7821  17.2443  18.5718
    18.5718  18.5990

          k = 0.0000 0.0000 0.4521 (  4885 PWs)   bands (ev):

   -69.5299 -39.4938 -35.6232 -35.5894 -35.5894 -15.9511 -15.5970 -15.5970
    13.2215  13.9996  15.1951  16.2795  16.2795  16.7817  16.8799  18.2798
    18.2798  18.2882

          k = 0.0000 0.0904 0.0904 (  4877 PWs)   bands (ev):

   -69.5325 -39.5147 -35.5970 -35.5949 -35.5931 -15.6462 -15.6405 -15.6143
    10.2085  13.7758  13.7912  16.2510  16.3109  16.4743  18.5214  18.6487
    20.0204  20.0443

          k = 0.0000 0.0904 0.1808 (  4874 PWs)   bands (ev):

   -69.5318 -39.5090 -35.6030 -35.5948 -35.5921 -15.7165 -15.6379 -15.6096
    10.6924  13.9873  14.0309  16.1725  16.2614  16.5888  18.2930  18.7240
    19.4887  19.5224

          k = 0.0000 0.0904 0.2712 (  4871 PWs)   bands (ev):

   -69.5309 -39.5014 -35.6116 -35.5941 -35.5909 -15.8106 -15.6313 -15.6035
    11.4414  14.2414  14.3793  16.1296  16.2055  16.6719  17.9059  18.6919
    18.9981  19.0341

          k = 0.0000 0.0904 0.3617 (  4878 PWs)   bands (ev):

   -69.5301 -39.4945 -35.6194 -35.5933 -35.5897 -15.8961 -15.6251 -15.5978
    12.3611  14.3285  14.8083  16.1343  16.1550  16.6784  17.4626  18.2892
    18.7077  18.8428

          k = 0.0000 0.0904 0.4521 (  4886 PWs)   bands (ev):

   -69.5296 -39.4904 -35.6240 -35.5929 -35.5891 -15.9465 -15.6215 -15.5945
    13.2827  14.0484  15.1889  16.0882  16.1694  16.6262  17.1431  18.0003
    18.5761  18.6505

          k = 0.0000 0.1808 0.1808 (  4879 PWs)   bands (ev):

   -69.5311 -39.5024 -35.6056 -35.5995 -35.5912 -15.7173 -15.7011 -15.6044
    11.1418  14.1297  14.3006  16.0026  16.1674  16.6636  18.3433  18.6841
    18.9825  19.2062

          k = 0.0000 0.1808 0.2712 (  4875 PWs)   bands (ev):

   -69.5303 -39.4938 -35.6132 -35.6015 -35.5900 -15.8019 -15.6993 -15.5976
    11.8234  14.2885  14.6678  15.8842  16.0768  16.5898  18.1748  18.4430
    18.8390  19.0314

          k = 0.0000 0.1808 0.3617 (  4884 PWs)   bands (ev):

   -69.5294 -39.4859 -35.6213 -35.6021 -35.5889 -15.8849 -15.6914 -15.5913
    12.6288  14.3140  15.0455  15.8487  16.0457  16.3856  17.8797  18.1090
    18.9575  19.0500

          k = 0.0000 0.1808 0.4521 (  4879 PWs)   bands (ev):

   -69.5290 -39.4812 -35.6262 -35.6024 -35.5883 -15.9339 -15.6866 -15.5876
    13.3820  14.0688  15.3221  15.8975  16.0748  16.1737  17.7127  17.8681
    18.9743  19.1438

          k = 0.0000 0.2712 0.2712 (  4877 PWs)   bands (ev):

   -69.5294 -39.4838 -35.6169 -35.6097 -35.5889 -15.7985 -15.7796 -15.5899
    12.3654  14.2648  15.1053  15.6809  16.0272  16.3288  18.2245  18.3993
    18.7398  19.2001

          k = 0.0000 0.2712 0.3617 (  4865 PWs)   bands (ev):

   -69.5286 -39.4746 -35.6239 -35.6135 -35.5878 -15.8704 -15.7773 -15.5828
    12.9306  14.1420  15.5384  15.5736  16.0124  16.1730  18.0439  18.3777
    18.9032  19.4689

          k = 0.0000 0.2712 0.4521 (  4865 PWs)   bands (ev):

   -69.5281 -39.4691 -35.6291 -35.6149 -35.5872 -15.9175 -15.7711 -15.5785
    13.3628  13.9458  15.5857  15.7563  15.7758  16.5121  17.8019  18.3353
    19.1054  19.7102

          k = 0.0000 0.3617 0.3617 (  4861 PWs)   bands (ev):

   -69.5278 -39.4642 -35.6273 -35.6230 -35.5868 -15.8616 -15.8507 -15.5749
    13.1404  13.9346  15.3913  15.6736  16.1288  16.5565  18.1643  18.7288
    18.7399  19.8638

          k = 0.0000 0.3617 0.4521 (  4861 PWs)   bands (ev):

   -69.5273 -39.4580 -35.6317 -35.6263 -35.5862 -15.9024 -15.8479 -15.5702
    13.2372  13.7932  15.3405  15.4396  16.4875  17.1883  17.9275  18.7848
    18.9459  20.1595

          k = 0.0000 0.4521 0.4521 (  4846 PWs)   bands (ev):

   -69.5268 -39.4513 -35.6335 -35.6329 -35.5856 -15.8940 -15.8925 -15.5653
    13.1361  13.7010  15.2224  15.2556  17.1733  17.6348  18.2965  18.4773
    19.0438  20.4245

          k = 0.0904 0.0904 0.0904 (  4872 PWs)   bands (ev):

   -69.5323 -39.5125 -35.5966 -35.5966 -35.5937 -15.6466 -15.6388 -15.6388
    10.3726  13.8646  13.8646  16.2289  16.2289  16.5492  18.5718  18.5718
    19.6127  20.2687

          k = 0.0904 0.0904 0.1808 (  4882 PWs)   bands (ev):

   -69.5316 -39.5065 -35.6032 -35.5956 -35.5936 -15.7141 -15.6375 -15.6342
    10.8474  14.0782  14.0927  16.1210  16.1705  16.6289  18.3498  18.6872
    19.1495  19.6962

          k = 0.0904 0.0904 0.2712 (  4873 PWs)   bands (ev):

   -69.5307 -39.4986 -35.6119 -35.5943 -35.5933 -15.8074 -15.6298 -15.6282
    11.5793  14.3411  14.4093  16.0631  16.0910  16.6242  18.0146  18.6370
    18.9573  19.0746

          k = 0.0904 0.0904 0.3617 (  4877 PWs)   bands (ev):

   -69.5299 -39.4914 -35.6200 -35.5932 -35.5929 -15.8921 -15.6228 -15.6227
    12.4711  14.4102  14.8089  15.9931  16.0918  16.5412  17.6393  18.3550
    18.5801  19.0485

          k = 0.0904 0.0904 0.4521 (  4883 PWs)   bands (ev):

   -69.5294 -39.4871 -35.6247 -35.5927 -35.5925 -15.9420 -15.6194 -15.6185
    13.3548  14.1161  15.1586  15.8714  16.2026  16.4545  17.3696  18.0724
    18.3095  19.1476

          k = 0.0904 0.1808 0.1808 (  4878 PWs)   bands (ev):

   -69.5309 -39.4997 -35.6052 -35.6002 -35.5937 -15.7142 -15.6994 -15.6302
    11.2923  14.2305  14.3498  15.9663  16.0631  16.5920  18.4109  18.6562
    18.8722  19.4189

          k = 0.0904 0.1808 0.2712 (  4871 PWs)   bands (ev):

   -69.5300 -39.4909 -35.6132 -35.6016 -35.5930 -15.7988 -15.6970 -15.6230
    11.9646  14.4049  14.6858  15.8413  15.9652  16.4150  18.2620  18.5612
    18.8751  19.0877

          k = 0.0904 0.1808 0.3617 (  4872 PWs)   bands (ev):

   -69.5292 -39.4828 -35.6216 -35.6019 -35.5923 -15.8813 -15.6891 -15.6162
    12.7536  14.4379  15.0009  15.7685  15.9555  16.2365  18.0307  18.2207
    18.7366  19.3428

          k = 0.0904 0.1808 0.4521 (  4881 PWs)   bands (ev):

   -69.5287 -39.4780 -35.6266 -35.6021 -35.5918 -15.9301 -15.6843 -15.6122
    13.4842  14.1775  15.2312  15.7007  16.0558  16.1770  17.8596  17.9369
    18.5380  19.7202

          k = 0.0904 0.2712 0.2712 (  4878 PWs)   bands (ev):

   -69.5291 -39.4809 -35.6165 -35.6099 -35.5921 -15.7949 -15.7777 -15.6151
    12.5101  14.3859  15.1147  15.6429  15.9017  16.1214  18.3392  18.5523
    18.7220  19.3298

          k = 0.0904 0.2712 0.3617 (  4877 PWs)   bands (ev):

   -69.5283 -39.4716 -35.6238 -35.6134 -35.5912 -15.8674 -15.7750 -15.6077
    13.0720  14.2647  15.4759  15.5347  15.8985  16.0427  18.1241  18.4658
    18.7907  19.7315

          k = 0.0904 0.2712 0.4521 (  4870 PWs)   bands (ev):

   -69.5278 -39.4661 -35.6291 -35.6145 -35.5907 -15.9144 -15.7689 -15.6034
    13.4904  14.0697  15.5040  15.5504  15.8459  16.4235  17.8380  18.4372
    18.7191  20.2035

          k = 0.0904 0.3617 0.3617 (  4876 PWs)   bands (ev):

   -69.5275 -39.4613 -35.6268 -35.6230 -35.5902 -15.8587 -15.8488 -15.5999
    13.2839  14.0565  15.3612  15.5861  16.0869  16.3879  18.1308  18.6188
    18.8275  20.1675

          k = 0.0904 0.3617 0.4521 (  4868 PWs)   bands (ev):

   -69.5270 -39.4551 -35.6315 -35.6259 -35.5896 -15.9000 -15.8459 -15.5952
    13.3714  13.9189  15.3084  15.3891  16.4130  17.0143  17.8876  18.5809
    18.9178  20.3964

          k = 0.0904 0.4521 0.4521 (  4859 PWs)   bands (ev):

   -69.5266 -39.4486 -35.6330 -35.6325 -35.5890 -15.8920 -15.8907 -15.5904
    13.2708  13.8268  15.2001  15.2289  17.1148  17.4905  18.0571  18.1486
    19.1205  20.6156

          k = 0.1808 0.1808 0.1808 (  4863 PWs)   bands (ev):

   -69.5302 -39.4926 -35.6042 -35.6042 -35.5981 -15.7105 -15.6946 -15.6946
    11.7215  14.4894  14.4894  15.8694  15.8694  16.3347  18.5742  18.5742
    18.9266  19.6557

          k = 0.1808 0.1808 0.2712 (  4872 PWs)   bands (ev):

   -69.5293 -39.4832 -35.6133 -35.6028 -35.6000 -15.7905 -15.6930 -15.6883
    12.3597  14.6949  14.7499  15.7348  15.7391  16.0288  18.4500  18.6436
    19.0596  19.2246

          k = 0.1808 0.1808 0.3617 (  4872 PWs)   bands (ev):

   -69.5285 -39.4745 -35.6223 -35.6015 -35.6010 -15.8718 -15.6828 -15.6826
    13.0829  14.7143  14.9243  15.6011  15.7659  15.9590  18.3196  18.3802
    18.5953  19.7722

          k = 0.1808 0.1808 0.4521 (  4873 PWs)   bands (ev):

   -69.5281 -39.4694 -35.6278 -35.6016 -35.6008 -15.9197 -15.6791 -15.6767
    13.7141  14.3838  15.1108  15.4811  15.8775  16.1307  17.9754  18.2479
    18.3288  20.1367

          k = 0.1808 0.2712 0.2712 (  4878 PWs)   bands (ev):

   -69.5285 -39.4730 -35.6153 -35.6108 -35.6008 -15.7854 -15.7728 -15.6822
    12.9155  14.7160  15.1362  15.5448  15.6205  15.6966  18.4659  18.6452
    18.9649  19.6913

          k = 0.1808 0.2712 0.3617 (  4867 PWs)   bands (ev):

   -69.5277 -39.4636 -35.6235 -35.6130 -35.6003 -15.8593 -15.7688 -15.6743
    13.4652  14.5865  15.2833  15.4311  15.6687  15.7814  18.2341  18.4765
    18.8599  19.9919

          k = 0.1808 0.2712 0.4521 (  4869 PWs)   bands (ev):

   -69.5272 -39.4580 -35.6293 -35.6135 -35.6000 -15.9062 -15.7631 -15.6696
    13.8350  14.3761  15.2616  15.3749  15.7500  16.2138  17.8793  18.3189
    18.7715  20.2070

          k = 0.1808 0.3617 0.3617 (  4867 PWs)   bands (ev):

   -69.5269 -39.4535 -35.6256 -35.6228 -35.5994 -15.8510 -15.8439 -15.6665
    13.6938  14.3748  15.2859  15.3968  15.9577  15.9745  18.1089  18.3356
    19.1177  20.1518

          k = 0.1808 0.3617 0.4521 (  4873 PWs)   bands (ev):

   -69.5264 -39.4475 -35.6307 -35.6248 -35.5989 -15.8937 -15.8405 -15.6619
    13.7527  14.2481  15.2320  15.2775  16.1682  16.5903  17.8284  18.1837
    19.1923  20.3874

          k = 0.1808 0.4521 0.4521 (  4857 PWs)   bands (ev):

   -69.5259 -39.4413 -35.6317 -35.6313 -35.5982 -15.8867 -15.8857 -15.6573
    13.6564  14.1622  15.1468  15.1676  16.8387  16.9376  17.7195  17.8992
    19.3760  20.6723

          k = 0.2712 0.2712 0.2712 (  4875 PWs)   bands (ev):

   -69.5276 -39.4626 -35.6138 -35.6138 -35.6101 -15.7757 -15.7664 -15.7664
    13.4815  15.1541  15.1541  15.2271  15.4248  15.4248  18.4728  18.4728
    19.4244  19.4244

          k = 0.2712 0.2712 0.3617 (  4870 PWs)   bands (ev):

   -69.5268 -39.4530 -35.6234 -35.6125 -35.6120 -15.8488 -15.7608 -15.7604
    13.9860  14.8477  15.1554  15.3248  15.4225  15.6323  18.2206  18.2681
    19.2755  19.9089

          k = 0.2712 0.2712 0.4521 (  4857 PWs)   bands (ev):

   -69.5263 -39.4473 -35.6295 -35.6126 -35.6117 -15.8953 -15.7569 -15.7540
    14.2181  14.6209  15.1459  15.2723  15.5907  16.0544  17.8238  18.1444
    19.2228  20.2405

          k = 0.2712 0.3617 0.3617 (  4870 PWs)   bands (ev):

   -69.5260 -39.4433 -35.6240 -35.6226 -35.6114 -15.8409 -15.8373 -15.7529
    14.2993  14.7140  15.2032  15.2917  15.5107  15.7498  18.0619  18.0632
    19.5721  20.1045

          k = 0.2712 0.3617 0.4521 (  4862 PWs)   bands (ev):

   -69.5255 -39.4375 -35.6298 -35.6233 -35.6109 -15.8854 -15.8335 -15.7483
    14.2980  14.6274  15.1642  15.2139  15.7865  16.1447  17.7293  17.9807
    19.6330  20.4222

          k = 0.2712 0.4521 0.4521 (  4851 PWs)   bands (ev):

   -69.5251 -39.4316 -35.6301 -35.6299 -35.6102 -15.8797 -15.8792 -15.7441
    14.2307  14.5872  15.0981  15.1245  16.2982  16.3270  17.5628  17.8219
    19.8059  20.7087

          k = 0.3617 0.3617 0.3617 (  4866 PWs)   bands (ev):

   -69.5252 -39.4339 -35.6225 -35.6225 -35.6223 -15.8317 -15.8313 -15.8313
    14.7127  15.0123  15.1570  15.1570  15.5113  15.5113  17.8917  17.8917
    20.1100  20.1100

          k = 0.3617 0.3617 0.4521 (  4844 PWs)   bands (ev):

   -69.5247 -39.4283 -35.6290 -35.6222 -35.6217 -15.8778 -15.8278 -15.8261
    14.7111  14.8738  15.1823  15.3119  15.4844  15.8484  17.6375  17.8165
    20.1224  20.5123

          k = 0.3617 0.4521 0.4521 (  4837 PWs)   bands (ev):

   -69.5243 -39.4228 -35.6285 -35.6285 -35.6211 -15.8733 -15.8732 -15.8230
    14.8165  14.9551  15.0982  15.1995  15.7794  15.8316  17.5232  17.6848
    20.3392  20.7372

          k = 0.4521 0.4521 0.4521 (  4836 PWs)   bands (ev):

   -69.5238 -39.4175 -35.6277 -35.6276 -35.6276 -15.8697 -15.8697 -15.8693
    15.0398  15.1772  15.1772  15.4786  15.4786  15.4948  17.5137  17.5137
    20.7535  20.7535

     the Fermi energy is    17.2487 ev

!    total energy              =    -448.58705834 Ry
     estimated scf accuracy    <          2.1E-11 Ry
     smearing contrib. (-TS)   =       0.00006528 Ry
     internal energy E=F+TS    =    -448.58712362 Ry

     The total energy is F=E-TS. E is the sum of the following terms:
     one-electron contribution =    -153.53243798 Ry
     hartree contribution      =      92.35905406 Ry
     xc contribution           =     -52.85867284 Ry
     ewald contribution        =    -258.40156446 Ry
     one-center paw contrib.   =     -76.15350239 Ry

     convergence has been achieved in  29 iterations

     negative rho (up, down):  9.760E-04 0.000E+00

     Forces acting on atoms (cartesian axes, Ry/au):

     atom    1 type  2   force =     0.00000000    0.00000000    0.00000000
     atom    2 type  1   force =     0.00000000    0.00000000    0.00000000

     Total force =     0.000000     Total SCF correction =     0.000000


     Computing stress (Cartesian axis) and pressure


     negative rho (up, down):  9.760E-04 0.000E+00
          total   stress  (Ry/bohr**3)                   (kbar)     P=       -0.12
  -0.00000082   0.00000000   0.00000000           -0.12        0.00        0.00
   0.00000000  -0.00000082   0.00000000            0.00       -0.12        0.00
   0.00000000   0.00000000  -0.00000082            0.00        0.00       -0.12


     Writing all to output data dir ./outputs/TiFe.save/ :
     XML data file
     init_run     :      2.11s CPU      2.18s WALL (       2 calls)
     electrons    :    101.05s CPU    104.93s WALL (       4 calls)
     update_pot   :      0.14s CPU      0.17s WALL (       2 calls)
     forces       :      0.64s CPU      0.70s WALL (       4 calls)
     stress       :      3.55s CPU      3.66s WALL (       4 calls)

     Called by init_run:
     wfcinit      :      0.89s CPU      0.91s WALL (       2 calls)
     potinit      :      0.26s CPU      0.27s WALL (       2 calls)
     hinit0       :      0.61s CPU      0.62s WALL (       2 calls)

     Called by electrons:
     c_bands      :     74.17s CPU     75.61s WALL (      75 calls)
     sum_band     :     17.00s CPU     18.13s WALL (      75 calls)
     v_of_rho     :      0.86s CPU      0.96s WALL (      78 calls)
     newd         :      5.08s CPU      5.87s WALL (      78 calls)
     PAW_pot      :      4.30s CPU      4.76s WALL (      80 calls)
     mix_rho      :      0.13s CPU      0.14s WALL (      75 calls)

     Called by c_bands:
     init_us_2    :      1.70s CPU      1.76s WALL (    9072 calls)
     cegterg      :     71.29s CPU     72.59s WALL (    4200 calls)

     Called by *egterg:
     cdiaghg      :      5.90s CPU      6.01s WALL (   17358 calls)
     h_psi        :     57.61s CPU     58.68s WALL (   17638 calls)
     s_psi        :      1.19s CPU      1.22s WALL (   17638 calls)
     g_psi        :      0.30s CPU      0.30s WALL (   13326 calls)

     Called by h_psi:
     h_psi:calbec :      1.99s CPU      2.03s WALL (   17638 calls)
     vloc_psi     :     54.13s CPU     55.14s WALL (   17638 calls)
     add_vuspsi   :      1.23s CPU      1.26s WALL (   17638 calls)

     General routines
     calbec       :      2.99s CPU      3.06s WALL (   25758 calls)
     fft          :      0.86s CPU      0.96s WALL (    1109 calls)
     ffts         :      0.13s CPU      0.14s WALL (     153 calls)
     fftw         :     55.17s CPU     56.14s WALL (  503066 calls)
     interpolate  :      0.16s CPU      0.18s WALL (      78 calls)

     Parallel routines

     PWSCF        :    108.01s CPU    112.46s WALL


   This run was terminated on:  12:42:12   5Nov2025            

=------------------------------------------------------------------------------=
   JOB DONE.
=------------------------------------------------------------------------------=
