
     Program PWSCF v.7.4 starts on  5Nov2025 at 15: 8:30 

     This program is part of the open-source Quantum ESPRESSO suite
     for quantum simulation of materials; please cite
         "P. Giannozzi et al., J. Phys.:Condens. Matter 21 395502 (2009);
         "P. Giannozzi et al., J. Phys.:Condens. Matter 29 465901 (2017);
         "P. Giannozzi et al., J. Chem. Phys. 152 154105 (2020);
          URL http://www.quantum-espresso.org", 
     in publications or presentations arising from this work. More details at
     http://www.quantum-espresso.org/quote

     Parallel version (MPI & OpenMP), running on       8 processor cores
     Number of MPI processes:                 8
     Threads/MPI process:                     1

     MPI processes distributed on     1 nodes
     196081 MiB available memory on the printing compute node when the environment starts

     Reading input from TiFe_FCH.in

     Current dimensions of program PWSCF are:
     Max number of different atomic species (ntypx) = 10
     Max number of k-points (npk) =  40000
     Max angular momentum in pseudopotentials (lmaxx) =  4

     File ./outputs/TiFe.update deleted, as requested

     File ./outputs/TiFe.bfgs deleted, as requested
     file Fe.pbe-spn-kjpaw_psl.0.2.1.UPF: wavefunction(s)  3D renormalized

     IMPORTANT: XC functional enforced from input :
     Exchange-correlation= PBE
                           (   1   4   3   4   0   0   0)
     Any further DFT definition will be discarded
     Please, verify this is what you really want

     Message from routine setup:
     using ibrav=0 with symmetry is DISCOURAGED, use correct ibrav instead

     R & G space division:  proc/nbgrp/npool/nimage =       8
     Subspace diagonalization in iterative solution of the eigenvalue problem:
     a serial algorithm will be used


     Parallelization info
     --------------------
     sticks:   dense  smooth     PW     G-vecs:    dense   smooth      PW
     Min         347     172     50                13774     4875     752
     Max         349     174     51                13775     4876     755
     Sum        2785    1389    401               110195    39007    6031

     Using Slab Decomposition



     bravais-lattice index     =            0
     lattice parameter (alat)  =       5.5533  a.u.
     unit-cell volume          =     174.0962 (a.u.)^3
     number of atoms/cell      =            5
     number of atomic types    =            3
     number of electrons       =        31.00
     number of Kohn-Sham states=           20
     kinetic-energy cutoff     =     140.0000  Ry
     charge density cutoff     =    1120.0000  Ry
     scf convergence threshold =      1.0E-08
     mixing beta               =       0.7000
     number of iterations used =            8  plain     mixing
     energy convergence thresh.=      1.0E-04
     force convergence thresh. =      1.0E-03
     press convergence thresh. =      5.0E-01
     Exchange-correlation= PBE
                           (   1   4   3   4   0   0   0)
     nstep                     =           50


     celldm(1)=   5.553300  celldm(2)=   0.000000  celldm(3)=   0.000000
     celldm(4)=   0.000000  celldm(5)=   0.000000  celldm(6)=   0.000000

     crystal axes: (cart. coord. in units of alat)
               a(1) = (   1.005492   0.000000   0.000000 )  
               a(2) = (   0.000000   1.005492   0.000000 )  
               a(3) = (   0.000000   0.000000   1.005492 )  

     reciprocal axes: (cart. coord. in units 2 pi/alat)
               b(1) = (  0.994538  0.000000  0.000000 )  
               b(2) = (  0.000000  0.994538  0.000000 )  
               b(3) = (  0.000000  0.000000  0.994538 )  


     PseudoPot. # 1 for Ti read from file:
     /vscmnt/antwerpen_storage_home/_user_antwerpen/211/vsc21140/pseudos/ti_pbe_v1.4.uspp.F.UPF
     MD5 check sum: 88a00a6731bd790ddea75d31a80cb452
     Pseudo is Ultrasoft + core correction, Zval = 12.0
     Generated by new atomic code, or converted to UPF format
     Using radial grid of  851 points,  6 beta functions with: 
                l(1) =   0
                l(2) =   0
                l(3) =   1
                l(4) =   1
                l(5) =   2
                l(6) =   2
     Q(r) pseudized with  6 coefficients,  rinner =    1.000   1.000   1.000
                                                       1.000   1.000

     PseudoPot. # 2 for Fe read from file:
     /vscmnt/antwerpen_storage_home/_user_antwerpen/211/vsc21140/pseudos/Fe.pbe-spn-kjpaw_psl.0.2.1.UPF
     MD5 check sum: e86618425769142926afa95317d90200
     Pseudo is Projector augmented-wave + core cor, Zval = 16.0
     Generated using "atomic" code by A. Dal Corso  v.5.0.99 svn rev. 10869
     Shape of augmentation charge: PSQ
     Using radial grid of 1191 points,  6 beta functions with: 
                l(1) =   0
                l(2) =   0
                l(3) =   1
                l(4) =   1
                l(5) =   2
                l(6) =   2
     Q(r) pseudized with 0 coefficients 


     PseudoPot. # 3 for H  read from file:
     /vscmnt/antwerpen_storage_home/_user_antwerpen/211/vsc21140/pseudos/H.pbe-rrkjus_psl.1.0.0.UPF
     MD5 check sum: f52b6d4d1c606e5624b1dc7b2218f220
     Pseudo is Ultrasoft, Zval =  1.0
     Generated using "atomic" code by A. Dal Corso  v.5.1
     Using radial grid of  929 points,  2 beta functions with: 
                l(1) =   0
                l(2) =   0
     Q(r) pseudized with 0 coefficients 


     atomic species   valence    mass     pseudopotential
     Ti               12.00    47.86700     Ti( 1.00)
     Fe               16.00    55.84500     Fe( 1.00)
     H                 1.00     1.00750     H ( 1.00)

      6 Sym. Ops. (no inversion) found



   Cartesian axes

     site n.     atom                  positions (alat units)
         1        Fe     tau(   1) = (   0.5055071   0.5055071   0.5055071  )
         2        Ti     tau(   2) = (   0.0000000   0.0000000   0.0000000  )
         3        H      tau(   3) = (   0.5027460   0.5027460   0.0000000  )
         4        H      tau(   4) = (   0.0000000   0.5027460   0.5027460  )
         5        H      tau(   5) = (   0.5027460   0.0000000   0.5027460  )

     number of k points=   146  Marzari-Vanderbilt smearing, width (Ry)=  0.0050

     Number of k-points >= 100: set verbosity='high' to print them.

     Dense  grid:   110195 G-vectors     FFT dimensions: (  60,  60,  60)

     Smooth grid:    39007 G-vectors     FFT dimensions: (  45,  45,  45)

     Estimated max dynamical RAM per process >      94.50 MB

     Estimated total dynamical RAM >     755.96 MB

     Check: negative core charge=   -0.000005

     Initial potential from superposition of free atoms

     starting charge      29.9995, renormalised to      31.0000

     negative rho (up, down):  1.404E-03 0.000E+00
     Starting wfcs are   26 randomized atomic wfcs
     Checking if some PAW data can be deallocated... 

     total cpu time spent up to now is        2.9 secs

     per-process dynamical memory:   162.5 Mb

     Self-consistent Calculation

     iteration #  1     ecut=   140.00 Ry     beta= 0.70
     Davidson diagonalization with overlap
     ethr =  1.00E-02,  avg # of iterations =  2.5

     negative rho (up, down):  9.150E-05 0.000E+00

     total cpu time spent up to now is        6.5 secs

     total energy              =    -444.29144798 Ry
     estimated scf accuracy    <       9.78631511 Ry

     iteration #  2     ecut=   140.00 Ry     beta= 0.70
     Davidson diagonalization with overlap
     ethr =  1.00E-02,  avg # of iterations =  5.1

     negative rho (up, down):  1.642E-04 0.000E+00

     total cpu time spent up to now is       11.7 secs

     total energy              =    -451.37902739 Ry
     estimated scf accuracy    <      44.25730238 Ry

     iteration #  3     ecut=   140.00 Ry     beta= 0.70
     Davidson diagonalization with overlap
     ethr =  1.00E-02,  avg # of iterations =  2.5

     negative rho (up, down):  3.289E-04 0.000E+00

     total cpu time spent up to now is       15.3 secs

     total energy              =    -452.36027005 Ry
     estimated scf accuracy    <       9.87471283 Ry

     iteration #  4     ecut=   140.00 Ry     beta= 0.70
     Davidson diagonalization with overlap
     ethr =  1.00E-02,  avg # of iterations =  1.6

     negative rho (up, down):  7.318E-04 0.000E+00

     total cpu time spent up to now is       18.1 secs

     total energy              =    -451.97462083 Ry
     estimated scf accuracy    <       4.77368789 Ry

     iteration #  5     ecut=   140.00 Ry     beta= 0.70
     Davidson diagonalization with overlap
     ethr =  1.00E-02,  avg # of iterations =  2.5

     negative rho (up, down):  1.090E-03 0.000E+00

     total cpu time spent up to now is       21.1 secs

     total energy              =    -451.58137591 Ry
     estimated scf accuracy    <       2.05039895 Ry

     iteration #  6     ecut=   140.00 Ry     beta= 0.70
     Davidson diagonalization with overlap
     ethr =  6.61E-03,  avg # of iterations =  2.9

     negative rho (up, down):  1.059E-03 0.000E+00

     total cpu time spent up to now is       24.3 secs

     total energy              =    -452.03640144 Ry
     estimated scf accuracy    <       2.71995652 Ry

     iteration #  7     ecut=   140.00 Ry     beta= 0.70
     Davidson diagonalization with overlap
     ethr =  6.61E-03,  avg # of iterations =  1.0

     negative rho (up, down):  9.112E-04 0.000E+00

     total cpu time spent up to now is       27.1 secs

     total energy              =    -451.93009877 Ry
     estimated scf accuracy    <       2.27463365 Ry

     iteration #  8     ecut=   140.00 Ry     beta= 0.70
     Davidson diagonalization with overlap
     ethr =  6.61E-03,  avg # of iterations =  1.0

     negative rho (up, down):  8.819E-04 0.000E+00

     total cpu time spent up to now is       29.9 secs

     total energy              =    -451.95383765 Ry
     estimated scf accuracy    <       0.46371843 Ry

     iteration #  9     ecut=   140.00 Ry     beta= 0.70
     Davidson diagonalization with overlap
     ethr =  1.50E-03,  avg # of iterations =  1.4

     negative rho (up, down):  8.061E-04 0.000E+00

     total cpu time spent up to now is       32.8 secs

     total energy              =    -451.93122616 Ry
     estimated scf accuracy    <       0.25071034 Ry

     iteration # 10     ecut=   140.00 Ry     beta= 0.70
     Davidson diagonalization with overlap
     ethr =  8.09E-04,  avg # of iterations =  1.5

     negative rho (up, down):  7.434E-04 0.000E+00

     total cpu time spent up to now is       35.7 secs

     total energy              =    -451.94468782 Ry
     estimated scf accuracy    <       0.00167385 Ry

     iteration # 11     ecut=   140.00 Ry     beta= 0.70
     Davidson diagonalization with overlap
     ethr =  5.40E-06,  avg # of iterations =  6.7

     negative rho (up, down):  7.161E-04 0.000E+00

     total cpu time spent up to now is       40.7 secs

     total energy              =    -451.94595322 Ry
     estimated scf accuracy    <       0.00521926 Ry

     iteration # 12     ecut=   140.00 Ry     beta= 0.70
     Davidson diagonalization with overlap
     ethr =  5.40E-06,  avg # of iterations =  2.0

     negative rho (up, down):  7.352E-04 0.000E+00

     total cpu time spent up to now is       43.7 secs

     total energy              =    -451.94625913 Ry
     estimated scf accuracy    <       0.00027323 Ry

     iteration # 13     ecut=   140.00 Ry     beta= 0.70
     Davidson diagonalization with overlap
     ethr =  8.81E-07,  avg # of iterations =  2.0

     negative rho (up, down):  7.408E-04 0.000E+00

     total cpu time spent up to now is       46.6 secs

     total energy              =    -451.94625707 Ry
     estimated scf accuracy    <       0.00018653 Ry

     iteration # 14     ecut=   140.00 Ry     beta= 0.70
     Davidson diagonalization with overlap
     ethr =  6.02E-07,  avg # of iterations =  1.7

     negative rho (up, down):  7.430E-04 0.000E+00

     total cpu time spent up to now is       49.4 secs

     total energy              =    -451.94625771 Ry
     estimated scf accuracy    <       0.00007133 Ry

     iteration # 15     ecut=   140.00 Ry     beta= 0.70
     Davidson diagonalization with overlap
     ethr =  2.30E-07,  avg # of iterations =  1.9

     negative rho (up, down):  8.003E-04 0.000E+00

     total cpu time spent up to now is       52.3 secs

     total energy              =    -451.94629252 Ry
     estimated scf accuracy    <       0.00005725 Ry

     iteration # 16     ecut=   140.00 Ry     beta= 0.70
     Davidson diagonalization with overlap
     ethr =  1.85E-07,  avg # of iterations =  5.5

     negative rho (up, down):  7.503E-04 0.000E+00

     total cpu time spent up to now is       57.2 secs

     total energy              =    -451.94599135 Ry
     estimated scf accuracy    <       0.00304920 Ry

     iteration # 17     ecut=   140.00 Ry     beta= 0.70
     Davidson diagonalization with overlap
     ethr =  1.85E-07,  avg # of iterations =  5.0

     negative rho (up, down):  7.498E-04 0.000E+00

     total cpu time spent up to now is       61.6 secs

     total energy              =    -451.94624530 Ry
     estimated scf accuracy    <       0.00000182 Ry

     iteration # 18     ecut=   140.00 Ry     beta= 0.70
     Davidson diagonalization with overlap
     ethr =  5.86E-09,  avg # of iterations =  4.9

     negative rho (up, down):  7.500E-04 0.000E+00

     total cpu time spent up to now is       65.7 secs

     total energy              =    -451.94624630 Ry
     estimated scf accuracy    <       0.00000056 Ry

     iteration # 19     ecut=   140.00 Ry     beta= 0.70
     Davidson diagonalization with overlap
     ethr =  1.79E-09,  avg # of iterations =  1.1

     negative rho (up, down):  7.501E-04 0.000E+00

     total cpu time spent up to now is       68.5 secs

     total energy              =    -451.94624614 Ry
     estimated scf accuracy    <       0.00000029 Ry

     iteration # 20     ecut=   140.00 Ry     beta= 0.70
     Davidson diagonalization with overlap
     ethr =  9.23E-10,  avg # of iterations =  2.0

     negative rho (up, down):  7.500E-04 0.000E+00

     total cpu time spent up to now is       71.7 secs

     total energy              =    -451.94624621 Ry
     estimated scf accuracy    <       0.00000002 Ry

     iteration # 21     ecut=   140.00 Ry     beta= 0.70
     Davidson diagonalization with overlap
     ethr =  4.97E-11,  avg # of iterations =  4.4

     negative rho (up, down):  7.499E-04 0.000E+00

     total cpu time spent up to now is       75.2 secs

     End of self-consistent calculation

     Number of k-points >= 100: set verbosity='high' to print the bands.

     the Fermi energy is    20.0554 ev

!    total energy              =    -451.94624621 Ry
     estimated scf accuracy    <          1.2E-09 Ry
     smearing contrib. (-TS)   =       0.00008881 Ry
     internal energy E=F+TS    =    -451.94633502 Ry

     The total energy is F=E-TS. E is the sum of the following terms:
     one-electron contribution =    -142.15429162 Ry
     hartree contribution      =      91.99130437 Ry
     xc contribution           =     -55.91914227 Ry
     ewald contribution        =    -269.70843883 Ry
     one-center paw contrib.   =     -76.15576667 Ry

     convergence has been achieved in  21 iterations

     negative rho (up, down):  7.499E-04 0.000E+00

     Forces acting on atoms (cartesian axes, Ry/au):

     atom    1 type  2   force =    -0.00831039   -0.00831039   -0.00831039
     atom    2 type  1   force =     0.00155085    0.00155085    0.00155085
     atom    3 type  3   force =    -0.00034907   -0.00034907    0.00745767
     atom    4 type  3   force =     0.00745767   -0.00034907   -0.00034907
     atom    5 type  3   force =    -0.00034907    0.00745767   -0.00034907

     Total force =     0.019544     Total SCF correction =     0.000013


     Computing stress (Cartesian axis) and pressure


     negative rho (up, down):  7.499E-04 0.000E+00
          total   stress  (Ry/bohr**3)                   (kbar)     P=      854.64
   0.00580970  -0.00000070  -0.00000070          854.64       -0.10       -0.10
  -0.00000070   0.00580970  -0.00000070           -0.10      854.64       -0.10
  -0.00000070  -0.00000070   0.00580970           -0.10       -0.10      854.64


     BFGS Geometry Optimization
     Energy error            =      3.2E-01 Ry
     Gradient error          =      8.3E-03 Ry/Bohr
     Cell gradient error     =      8.5E+02 kbar

     number of scf cycles    =   1
     number of bfgs steps    =   0

     enthalpy           new  =    -451.9462462090 Ry

     new trust radius        =       0.3832819215 bohr
     new conv_thr            =       0.0000000100 Ry

     new unit-cell volume =    261.50602 a.u.^3 (    38.75119 Ang^3 )
     density =      4.57371 g/cm^3

CELL_PARAMETERS (alat=  5.55330037)
   1.151532152  -0.000017502  -0.000017502
  -0.000017502   1.151532152  -0.000017502
  -0.000017502  -0.000017502   1.151532152

ATOMIC_POSITIONS (crystal)
Fe               0.5012576959        0.5012576959        0.5012576959
Ti               0.0002777413        0.0002777413        0.0002777413
H                0.4999374861        0.4999374861        0.0013355907
H                0.0013355907        0.4999374861        0.4999374861
H                0.4999374861        0.0013355907        0.4999374861



     Writing config-only to output data dir ./outputs/TiFe.save/ :
     XML data file     NEW-OLD atomic charge density approx. for the potential
     New effective cutoffs (rho, wfc):  853.46  106.74

     Check: negative core charge=   -0.000005

     negative rho (up, down):  8.709E-04 0.000E+00

     total cpu time spent up to now is       77.4 secs

     per-process dynamical memory:   167.1 Mb

     Self-consistent Calculation

     iteration #  1     ecut=   140.00 Ry     beta= 0.70
     Davidson diagonalization with overlap
     ethr =  1.00E-06,  avg # of iterations = 16.0

     negative rho (up, down):  4.947E-04 0.000E+00

     total cpu time spent up to now is       91.0 secs

     total energy              =    -451.96963384 Ry
     estimated scf accuracy    <       0.11172502 Ry

     iteration #  2     ecut=   140.00 Ry     beta= 0.70
     Davidson diagonalization with overlap
     ethr =  3.60E-04,  avg # of iterations =  5.9

     negative rho (up, down):  6.030E-04 0.000E+00

     total cpu time spent up to now is       95.6 secs

     total energy              =    -451.84340330 Ry
     estimated scf accuracy    <       4.66091621 Ry

     iteration #  3     ecut=   140.00 Ry     beta= 0.70
     Davidson diagonalization with overlap
     ethr =  3.60E-04,  avg # of iterations =  5.2

     negative rho (up, down):  6.878E-04 0.000E+00

     total cpu time spent up to now is       99.7 secs

     total energy              =    -452.04452929 Ry
     estimated scf accuracy    <       0.11387932 Ry

     iteration #  4     ecut=   140.00 Ry     beta= 0.70
     Davidson diagonalization with overlap
     ethr =  3.60E-04,  avg # of iterations =  2.2

     negative rho (up, down):  7.279E-04 0.000E+00

     total cpu time spent up to now is      102.8 secs

     total energy              =    -452.05047589 Ry
     estimated scf accuracy    <       0.02886137 Ry

     iteration #  5     ecut=   140.00 Ry     beta= 0.70
     Davidson diagonalization with overlap
     ethr =  9.31E-05,  avg # of iterations =  4.4

     negative rho (up, down):  6.925E-04 0.000E+00

     total cpu time spent up to now is      106.2 secs

     total energy              =    -452.05345925 Ry
     estimated scf accuracy    <       0.05769387 Ry

     iteration #  6     ecut=   140.00 Ry     beta= 0.70
     Davidson diagonalization with overlap
     ethr =  9.31E-05,  avg # of iterations =  1.5

     negative rho (up, down):  6.899E-04 0.000E+00

     total cpu time spent up to now is      109.0 secs

     total energy              =    -452.05602415 Ry
     estimated scf accuracy    <       0.00042251 Ry

     iteration #  7     ecut=   140.00 Ry     beta= 0.70
     Davidson diagonalization with overlap
     ethr =  1.36E-06,  avg # of iterations =  4.8

     negative rho (up, down):  6.845E-04 0.000E+00

     total cpu time spent up to now is      112.9 secs

     total energy              =    -452.05619992 Ry
     estimated scf accuracy    <       0.00144790 Ry

     iteration #  8     ecut=   140.00 Ry     beta= 0.70
     Davidson diagonalization with overlap
     ethr =  1.36E-06,  avg # of iterations =  1.1

     negative rho (up, down):  6.808E-04 0.000E+00

     total cpu time spent up to now is      115.8 secs

     total energy              =    -452.05616580 Ry
     estimated scf accuracy    <       0.00053391 Ry

     iteration #  9     ecut=   140.00 Ry     beta= 0.70
     Davidson diagonalization with overlap
     ethr =  1.36E-06,  avg # of iterations =  1.9

     negative rho (up, down):  6.807E-04 0.000E+00

     total cpu time spent up to now is      118.8 secs

     total energy              =    -452.05619832 Ry
     estimated scf accuracy    <       0.00000596 Ry

     iteration # 10     ecut=   140.00 Ry     beta= 0.70
     Davidson diagonalization with overlap
     ethr =  1.92E-08,  avg # of iterations =  4.9

     negative rho (up, down):  6.808E-04 0.000E+00

     total cpu time spent up to now is      122.8 secs

     total energy              =    -452.05620127 Ry
     estimated scf accuracy    <       0.00000246 Ry

     iteration # 11     ecut=   140.00 Ry     beta= 0.70
     Davidson diagonalization with overlap
     ethr =  7.93E-09,  avg # of iterations =  1.5

     negative rho (up, down):  6.807E-04 0.000E+00

     total cpu time spent up to now is      125.6 secs

     total energy              =    -452.05620133 Ry
     estimated scf accuracy    <       0.00000086 Ry

     iteration # 12     ecut=   140.00 Ry     beta= 0.70
     Davidson diagonalization with overlap
     ethr =  2.76E-09,  avg # of iterations =  1.7

     negative rho (up, down):  6.808E-04 0.000E+00

     total cpu time spent up to now is      128.4 secs

     total energy              =    -452.05620118 Ry
     estimated scf accuracy    <       0.00000206 Ry

     iteration # 13     ecut=   140.00 Ry     beta= 0.70
     Davidson diagonalization with overlap
     ethr =  2.76E-09,  avg # of iterations =  1.5

     negative rho (up, down):  6.809E-04 0.000E+00

     total cpu time spent up to now is      131.2 secs

     total energy              =    -452.05620112 Ry
     estimated scf accuracy    <       0.00000070 Ry

     iteration # 14     ecut=   140.00 Ry     beta= 0.70
     Davidson diagonalization with overlap
     ethr =  2.27E-09,  avg # of iterations =  2.0

     negative rho (up, down):  6.809E-04 0.000E+00

     total cpu time spent up to now is      134.1 secs

     total energy              =    -452.05620117 Ry
     estimated scf accuracy    <       0.00000007 Ry

     iteration # 15     ecut=   140.00 Ry     beta= 0.70
     Davidson diagonalization with overlap
     ethr =  2.29E-10,  avg # of iterations =  3.9

     negative rho (up, down):  6.808E-04 0.000E+00

     total cpu time spent up to now is      137.4 secs

     End of self-consistent calculation

     Number of k-points >= 100: set verbosity='high' to print the bands.

     the Fermi energy is    12.4614 ev

!    total energy              =    -452.05620117 Ry
     estimated scf accuracy    <          8.0E-09 Ry
     smearing contrib. (-TS)   =      -0.00016232 Ry
     internal energy E=F+TS    =    -452.05603886 Ry

     The total energy is F=E-TS. E is the sum of the following terms:
     one-electron contribution =    -195.52485522 Ry
     hartree contribution      =     110.06103644 Ry
     xc contribution           =     -54.93890045 Ry
     ewald contribution        =    -235.50682605 Ry
     one-center paw contrib.   =     -76.14649359 Ry

     convergence has been achieved in  15 iterations

     negative rho (up, down):  6.808E-04 0.000E+00

     Forces acting on atoms (cartesian axes, Ry/au):

     atom    1 type  2   force =    -0.00007049   -0.00007049   -0.00007049
     atom    2 type  1   force =     0.00007840    0.00007840    0.00007840
     atom    3 type  3   force =     0.00016252    0.00016252   -0.00033294
     atom    4 type  3   force =    -0.00033294    0.00016252    0.00016252
     atom    5 type  3   force =     0.00016252   -0.00033294    0.00016252

     Total force =     0.000724     Total SCF correction =     0.000008


     Computing stress (Cartesian axis) and pressure


     negative rho (up, down):  6.808E-04 0.000E+00
          total   stress  (Ry/bohr**3)                   (kbar)     P=     -167.47
  -0.00113845  -0.00000004  -0.00000004         -167.47       -0.01       -0.01
  -0.00000004  -0.00113845  -0.00000004           -0.01     -167.47       -0.01
  -0.00000004  -0.00000004  -0.00113845           -0.01       -0.01     -167.47

     Energy error            =      1.1E-01 Ry
     Gradient error          =      3.3E-04 Ry/Bohr
     Cell gradient error     =      1.7E+02 kbar

     number of scf cycles    =   2
     number of bfgs steps    =   1

     enthalpy           old  =    -451.9462462090 Ry
     enthalpy           new  =    -452.0562011746 Ry

     CASE: enthalpy          _new < enthalpy          _old

     new trust radius        =       0.0838661985 bohr
     new conv_thr            =            1.0E-10 Ry

     new unit-cell volume =    241.68579 a.u.^3 (    35.81414 Ang^3 )
     density =      4.94879 g/cm^3

CELL_PARAMETERS (alat=  5.55330037)
   1.121671989  -0.000019082  -0.000019082
  -0.000019082   1.121671989  -0.000019082
  -0.000019082  -0.000019082   1.121671989

ATOMIC_POSITIONS (crystal)
Fe               0.5012461443        0.5012461443        0.5012461443
Ti               0.0002905435        0.0002905435        0.0002905435
H                0.4999640060        0.4999640060        0.0012813003
H                0.0012813003        0.4999640060        0.4999640060
H                0.4999640060        0.0012813003        0.4999640060



     Writing config-only to output data dir ./outputs/TiFe.save/ :
     XML data file     NEW-OLD atomic charge density approx. for the potential
     New effective cutoffs (rho, wfc):  899.51  112.50

     Check: negative core charge=   -0.000003

     negative rho (up, down):  6.288E-04 0.000E+00

     total cpu time spent up to now is      139.7 secs

     per-process dynamical memory:   167.1 Mb

     Self-consistent Calculation

     iteration #  1     ecut=   140.00 Ry     beta= 0.70
     Davidson diagonalization with overlap
     ethr =  1.00E-06,  avg # of iterations =  8.0

     negative rho (up, down):  7.034E-04 0.000E+00

     total cpu time spent up to now is      147.2 secs

     total energy              =    -452.06972528 Ry
     estimated scf accuracy    <       0.00424236 Ry

     iteration #  2     ecut=   140.00 Ry     beta= 0.70
     Davidson diagonalization with overlap
     ethr =  1.37E-05,  avg # of iterations =  6.2

     negative rho (up, down):  6.758E-04 0.000E+00

     total cpu time spent up to now is      151.9 secs

     total energy              =    -452.03326650 Ry
     estimated scf accuracy    <       1.07946460 Ry

     iteration #  3     ecut=   140.00 Ry     beta= 0.70
     Davidson diagonalization with overlap
     ethr =  1.37E-05,  avg # of iterations =  5.8

     negative rho (up, down):  6.674E-04 0.000E+00

     total cpu time spent up to now is      156.3 secs

     total energy              =    -452.07256884 Ry
     estimated scf accuracy    <       0.00267141 Ry

     iteration #  4     ecut=   140.00 Ry     beta= 0.70
     Davidson diagonalization with overlap
     ethr =  8.62E-06,  avg # of iterations =  2.1

     negative rho (up, down):  6.722E-04 0.000E+00

     total cpu time spent up to now is      159.4 secs

     total energy              =    -452.07295366 Ry
     estimated scf accuracy    <       0.00000569 Ry

     iteration #  5     ecut=   140.00 Ry     beta= 0.70
     Davidson diagonalization with overlap
     ethr =  1.84E-08,  avg # of iterations =  5.9

     negative rho (up, down):  6.747E-04 0.000E+00

     total cpu time spent up to now is      164.3 secs

     total energy              =    -452.07296873 Ry
     estimated scf accuracy    <       0.00006330 Ry

     iteration #  6     ecut=   140.00 Ry     beta= 0.70
     Davidson diagonalization with overlap
     ethr =  1.84E-08,  avg # of iterations =  3.8

     negative rho (up, down):  6.754E-04 0.000E+00

     total cpu time spent up to now is      168.3 secs

     total energy              =    -452.07297173 Ry
     estimated scf accuracy    <       0.00000567 Ry

     iteration #  7     ecut=   140.00 Ry     beta= 0.70
     Davidson diagonalization with overlap
     ethr =  1.83E-08,  avg # of iterations =  1.0

     negative rho (up, down):  6.753E-04 0.000E+00

     total cpu time spent up to now is      171.1 secs

     total energy              =    -452.07297204 Ry
     estimated scf accuracy    <       0.00000019 Ry

     iteration #  8     ecut=   140.00 Ry     beta= 0.70
     Davidson diagonalization with overlap
     ethr =  6.01E-10,  avg # of iterations =  4.4

     negative rho (up, down):  6.754E-04 0.000E+00

     total cpu time spent up to now is      175.2 secs

     total energy              =    -452.07297212 Ry
     estimated scf accuracy    <       0.00000009 Ry

     iteration #  9     ecut=   140.00 Ry     beta= 0.70
     Davidson diagonalization with overlap
     ethr =  2.87E-10,  avg # of iterations =  1.1

     negative rho (up, down):  6.754E-04 0.000E+00

     total cpu time spent up to now is      178.0 secs

     total energy              =    -452.07297211 Ry
     estimated scf accuracy    <       0.00000006 Ry

     iteration # 10     ecut=   140.00 Ry     beta= 0.70
     Davidson diagonalization with overlap
     ethr =  1.90E-10,  avg # of iterations =  1.9

     negative rho (up, down):  6.754E-04 0.000E+00

     total cpu time spent up to now is      180.9 secs

     total energy              =    -452.07297212 Ry
     estimated scf accuracy    <          1.7E-09 Ry

     iteration # 11     ecut=   140.00 Ry     beta= 0.70
     Davidson diagonalization with overlap
     ethr =  5.39E-12,  avg # of iterations =  4.5

     negative rho (up, down):  6.754E-04 0.000E+00

     total cpu time spent up to now is      184.7 secs

     total energy              =    -452.07297212 Ry
     estimated scf accuracy    <          8.0E-10 Ry

     iteration # 12     ecut=   140.00 Ry     beta= 0.70
     Davidson diagonalization with overlap
     ethr =  2.57E-12,  avg # of iterations =  1.1

     negative rho (up, down):  6.754E-04 0.000E+00

     total cpu time spent up to now is      187.4 secs

     End of self-consistent calculation

     Number of k-points >= 100: set verbosity='high' to print the bands.

     the Fermi energy is    13.7320 ev

!    total energy              =    -452.07297212 Ry
     estimated scf accuracy    <          5.3E-11 Ry
     smearing contrib. (-TS)   =      -0.00008897 Ry
     internal energy E=F+TS    =    -452.07288315 Ry

     The total energy is F=E-TS. E is the sum of the following terms:
     one-electron contribution =    -185.58460912 Ry
     hartree contribution      =     106.53124121 Ry
     xc contribution           =     -55.09506017 Ry
     ewald contribution        =    -241.77628336 Ry
     one-center paw contrib.   =     -76.14817171 Ry

     convergence has been achieved in  12 iterations

     negative rho (up, down):  6.754E-04 0.000E+00

     Forces acting on atoms (cartesian axes, Ry/au):

     atom    1 type  2   force =    -0.00010123   -0.00010123   -0.00010123
     atom    2 type  1   force =     0.00014212    0.00014212    0.00014212
     atom    3 type  3   force =     0.00012777    0.00012777   -0.00029644
     atom    4 type  3   force =    -0.00029644    0.00012777    0.00012777
     atom    5 type  3   force =     0.00012777   -0.00029644    0.00012777

     Total force =     0.000673     Total SCF correction =     0.000000


     Computing stress (Cartesian axis) and pressure


     negative rho (up, down):  6.754E-04 0.000E+00
          total   stress  (Ry/bohr**3)                   (kbar)     P=      -74.12
  -0.00050387  -0.00000002  -0.00000002          -74.12       -0.00       -0.00
  -0.00000002  -0.00050387  -0.00000002           -0.00      -74.12       -0.00
  -0.00000002  -0.00000002  -0.00050387           -0.00       -0.00      -74.12

     Energy error            =      1.7E-02 Ry
     Gradient error          =      3.0E-04 Ry/Bohr
     Cell gradient error     =      7.4E+01 kbar

     number of scf cycles    =   3
     number of bfgs steps    =   2

     enthalpy           old  =    -452.0562011746 Ry
     enthalpy           new  =    -452.0729721207 Ry

     CASE: enthalpy          _new < enthalpy          _old

     new trust radius        =       0.0599242028 bohr
     new conv_thr            =            1.0E-10 Ry

     new unit-cell volume =    227.97943 a.u.^3 (    33.78307 Ang^3 )
     density =      5.24632 g/cm^3

CELL_PARAMETERS (alat=  5.55330037)
   1.100054135  -0.000020429  -0.000020429
  -0.000020429   1.100054135  -0.000020429
  -0.000020429  -0.000020429   1.100054135

ATOMIC_POSITIONS (crystal)
Fe               0.5012133837        0.5012133837        0.5012133837
Ti               0.0003371192        0.0003371192        0.0003371192
H                0.5000030828        0.5000030828        0.0011893316
H                0.0011893316        0.5000030828        0.5000030828
H                0.5000030828        0.0011893316        0.5000030828



     Writing config-only to output data dir ./outputs/TiFe.save/ :
     XML data file     NEW-OLD atomic charge density approx. for the potential
     New effective cutoffs (rho, wfc):  935.21  116.97

     Check: negative core charge=   -0.000005

     negative rho (up, down):  6.353E-04 0.000E+00

     total cpu time spent up to now is      189.5 secs

     per-process dynamical memory:   167.1 Mb

     Self-consistent Calculation

     iteration #  1     ecut=   140.00 Ry     beta= 0.70
     Davidson diagonalization with overlap
     ethr =  1.00E-06,  avg # of iterations =  8.3

     negative rho (up, down):  6.824E-04 0.000E+00

     total cpu time spent up to now is      196.7 secs

     total energy              =    -452.07446717 Ry
     estimated scf accuracy    <       0.00169177 Ry

     iteration #  2     ecut=   140.00 Ry     beta= 0.70
     Davidson diagonalization with overlap
     ethr =  5.46E-06,  avg # of iterations =  5.8

     negative rho (up, down):  6.671E-04 0.000E+00

     total cpu time spent up to now is      201.3 secs

     total energy              =    -452.06364918 Ry
     estimated scf accuracy    <       0.27946036 Ry

     iteration #  3     ecut=   140.00 Ry     beta= 0.70
     Davidson diagonalization with overlap
     ethr =  5.46E-06,  avg # of iterations =  5.3

     negative rho (up, down):  6.620E-04 0.000E+00

     total cpu time spent up to now is      205.8 secs

     total energy              =    -452.07555708 Ry
     estimated scf accuracy    <       0.00104282 Ry

     iteration #  4     ecut=   140.00 Ry     beta= 0.70
     Davidson diagonalization with overlap
     ethr =  3.36E-06,  avg # of iterations =  2.0

     negative rho (up, down):  6.650E-04 0.000E+00

     total cpu time spent up to now is      208.9 secs

     total energy              =    -452.07572876 Ry
     estimated scf accuracy    <       0.00001289 Ry

     iteration #  5     ecut=   140.00 Ry     beta= 0.70
     Davidson diagonalization with overlap
     ethr =  4.16E-08,  avg # of iterations =  4.7

     negative rho (up, down):  6.665E-04 0.000E+00

     total cpu time spent up to now is      212.8 secs

     total energy              =    -452.07573486 Ry
     estimated scf accuracy    <       0.00002393 Ry

     iteration #  6     ecut=   140.00 Ry     beta= 0.70
     Davidson diagonalization with overlap
     ethr =  4.16E-08,  avg # of iterations =  2.0

     negative rho (up, down):  6.671E-04 0.000E+00

     total cpu time spent up to now is      215.8 secs

     total energy              =    -452.07573589 Ry
     estimated scf accuracy    <       0.00000225 Ry

     iteration #  7     ecut=   140.00 Ry     beta= 0.70
     Davidson diagonalization with overlap
     ethr =  7.25E-09,  avg # of iterations =  2.5

     negative rho (up, down):  6.671E-04 0.000E+00

     total cpu time spent up to now is      219.0 secs

     total energy              =    -452.07573620 Ry
     estimated scf accuracy    <          9.3E-09 Ry

     iteration #  8     ecut=   140.00 Ry     beta= 0.70
     Davidson diagonalization with overlap
     ethr =  3.00E-11,  avg # of iterations =  6.9

     negative rho (up, down):  6.670E-04 0.000E+00

     total cpu time spent up to now is      224.7 secs

     total energy              =    -452.07573625 Ry
     estimated scf accuracy    <       0.00000001 Ry

     iteration #  9     ecut=   140.00 Ry     beta= 0.70
     Davidson diagonalization with overlap
     ethr =  3.00E-11,  avg # of iterations =  2.0

     negative rho (up, down):  6.670E-04 0.000E+00

     total cpu time spent up to now is      227.9 secs

     total energy              =    -452.07573625 Ry
     estimated scf accuracy    <          3.0E-09 Ry

     iteration # 10     ecut=   140.00 Ry     beta= 0.70
     Davidson diagonalization with overlap
     ethr =  9.71E-12,  avg # of iterations =  5.0

     negative rho (up, down):  6.670E-04 0.000E+00

     total cpu time spent up to now is      232.5 secs

     total energy              =    -452.07573625 Ry
     estimated scf accuracy    <       0.00000001 Ry

     iteration # 11     ecut=   140.00 Ry     beta= 0.70
     Davidson diagonalization with overlap
     ethr =  9.71E-12,  avg # of iterations =  4.8

     negative rho (up, down):  6.670E-04 0.000E+00

     total cpu time spent up to now is      237.0 secs

     total energy              =    -452.07573625 Ry
     estimated scf accuracy    <          4.5E-09 Ry

     iteration # 12     ecut=   140.00 Ry     beta= 0.70
     Davidson diagonalization with overlap
     ethr =  9.71E-12,  avg # of iterations =  2.0

     negative rho (up, down):  6.670E-04 0.000E+00

     total cpu time spent up to now is      240.1 secs

     End of self-consistent calculation

     Number of k-points >= 100: set verbosity='high' to print the bands.

     the Fermi energy is    14.7306 ev

!    total energy              =    -452.07573625 Ry
     estimated scf accuracy    <          5.3E-12 Ry
     smearing contrib. (-TS)   =      -0.00004453 Ry
     internal energy E=F+TS    =    -452.07569173 Ry

     The total energy is F=E-TS. E is the sum of the following terms:
     one-electron contribution =    -178.10133118 Ry
     hartree contribution      =     103.92330236 Ry
     xc contribution           =     -55.22060429 Ry
     ewald contribution        =    -246.52760338 Ry
     one-center paw contrib.   =     -76.14945524 Ry

     convergence has been achieved in  12 iterations

     negative rho (up, down):  6.670E-04 0.000E+00

     Forces acting on atoms (cartesian axes, Ry/au):

     atom    1 type  2   force =    -0.00016962   -0.00016962   -0.00016962
     atom    2 type  1   force =     0.00018141    0.00018141    0.00018141
     atom    3 type  3   force =     0.00009313    0.00009313   -0.00019805
     atom    4 type  3   force =    -0.00019805    0.00009313    0.00009313
     atom    5 type  3   force =     0.00009313   -0.00019805    0.00009313

     Total force =     0.000596     Total SCF correction =     0.000001


     Computing stress (Cartesian axis) and pressure


     negative rho (up, down):  6.670E-04 0.000E+00
          total   stress  (Ry/bohr**3)                   (kbar)     P=       19.57
   0.00013300  -0.00000000  -0.00000000           19.57       -0.00       -0.00
  -0.00000000   0.00013300  -0.00000000           -0.00       19.57       -0.00
  -0.00000000  -0.00000000   0.00013300           -0.00       -0.00       19.57

     Energy error            =      2.8E-03 Ry
     Gradient error          =      2.0E-04 Ry/Bohr
     Cell gradient error     =      2.0E+01 kbar

     number of scf cycles    =   4
     number of bfgs steps    =   3

     enthalpy           old  =    -452.0729721207 Ry
     enthalpy           new  =    -452.0757362510 Ry

     CASE: enthalpy          _new < enthalpy          _old

     new trust radius        =       0.0120111372 bohr
     new conv_thr            =            1.0E-10 Ry

     new unit-cell volume =    230.71061 a.u.^3 (    34.18778 Ang^3 )
     density =      5.18421 g/cm^3

CELL_PARAMETERS (alat=  5.55330037)
   1.104429561  -0.000020308  -0.000020308
  -0.000020308   1.104429561  -0.000020308
  -0.000020308  -0.000020308   1.104429561

ATOMIC_POSITIONS (crystal)
Fe               0.5011894118        0.5011894118        0.5011894118
Ti               0.0003617896        0.0003617896        0.0003617896
H                0.5000148971        0.5000148971        0.0011650044
H                0.0011650044        0.5000148971        0.5000148971
H                0.5000148971        0.0011650044        0.5000148971



     Writing config-only to output data dir ./outputs/TiFe.save/ :
     XML data file     NEW-OLD atomic charge density approx. for the potential
     New effective cutoffs (rho, wfc):  927.82  116.04

     Check: negative core charge=   -0.000004

     negative rho (up, down):  6.747E-04 0.000E+00

     total cpu time spent up to now is      242.2 secs

     per-process dynamical memory:   167.1 Mb

     Self-consistent Calculation

     iteration #  1     ecut=   140.00 Ry     beta= 0.70
     Davidson diagonalization with overlap
     ethr =  1.00E-06,  avg # of iterations =  5.0

     negative rho (up, down):  6.656E-04 0.000E+00

     total cpu time spent up to now is      247.1 secs

     total energy              =    -452.07584307 Ry
     estimated scf accuracy    <       0.00007053 Ry

     iteration #  2     ecut=   140.00 Ry     beta= 0.70
     Davidson diagonalization with overlap
     ethr =  2.28E-07,  avg # of iterations =  5.8

     negative rho (up, down):  6.687E-04 0.000E+00

     total cpu time spent up to now is      251.7 secs

     total energy              =    -452.07547151 Ry
     estimated scf accuracy    <       0.00981800 Ry

     iteration #  3     ecut=   140.00 Ry     beta= 0.70
     Davidson diagonalization with overlap
     ethr =  2.28E-07,  avg # of iterations =  5.1

     negative rho (up, down):  6.696E-04 0.000E+00

     total cpu time spent up to now is      255.8 secs

     total energy              =    -452.07589827 Ry
     estimated scf accuracy    <       0.00001279 Ry

     iteration #  4     ecut=   140.00 Ry     beta= 0.70
     Davidson diagonalization with overlap
     ethr =  4.12E-08,  avg # of iterations =  3.1

     negative rho (up, down):  6.692E-04 0.000E+00

     total cpu time spent up to now is      259.4 secs

     total energy              =    -452.07590223 Ry
     estimated scf accuracy    <       0.00000362 Ry

     iteration #  5     ecut=   140.00 Ry     beta= 0.70
     Davidson diagonalization with overlap
     ethr =  1.17E-08,  avg # of iterations =  1.7

     negative rho (up, down):  6.688E-04 0.000E+00

     total cpu time spent up to now is      262.4 secs

     total energy              =    -452.07590240 Ry
     estimated scf accuracy    <       0.00000033 Ry

     iteration #  6     ecut=   140.00 Ry     beta= 0.70
     Davidson diagonalization with overlap
     ethr =  1.06E-09,  avg # of iterations =  4.4

     negative rho (up, down):  6.688E-04 0.000E+00

     total cpu time spent up to now is      266.1 secs

     total energy              =    -452.07590250 Ry
     estimated scf accuracy    <       0.00000005 Ry

     iteration #  7     ecut=   140.00 Ry     beta= 0.70
     Davidson diagonalization with overlap
     ethr =  1.70E-10,  avg # of iterations =  2.7

     negative rho (up, down):  6.688E-04 0.000E+00

     total cpu time spent up to now is      269.1 secs

     total energy              =    -452.07590250 Ry
     estimated scf accuracy    <       0.00000001 Ry

     iteration #  8     ecut=   140.00 Ry     beta= 0.70
     Davidson diagonalization with overlap
     ethr =  3.62E-11,  avg # of iterations =  2.5

     negative rho (up, down):  6.688E-04 0.000E+00

     total cpu time spent up to now is      272.1 secs

     total energy              =    -452.07590250 Ry
     estimated scf accuracy    <          4.0E-10 Ry

     iteration #  9     ecut=   140.00 Ry     beta= 0.70
     Davidson diagonalization with overlap
     ethr =  1.30E-12,  avg # of iterations =  5.0

     negative rho (up, down):  6.688E-04 0.000E+00

     total cpu time spent up to now is      276.4 secs

     End of self-consistent calculation

     Number of k-points >= 100: set verbosity='high' to print the bands.

     the Fermi energy is    14.5228 ev

!    total energy              =    -452.07590250 Ry
     estimated scf accuracy    <          4.2E-11 Ry
     smearing contrib. (-TS)   =      -0.00005221 Ry
     internal energy E=F+TS    =    -452.07585029 Ry

     The total energy is F=E-TS. E is the sum of the following terms:
     one-electron contribution =    -179.63617071 Ry
     hartree contribution      =     104.45476365 Ry
     xc contribution           =     -55.19430378 Ry
     ewald contribution        =    -245.55094910 Ry
     one-center paw contrib.   =     -76.14919035 Ry

     convergence has been achieved in   9 iterations

     negative rho (up, down):  6.688E-04 0.000E+00

     Forces acting on atoms (cartesian axes, Ry/au):

     atom    1 type  2   force =    -0.00016298   -0.00016298   -0.00016298
     atom    2 type  1   force =     0.00016384    0.00016384    0.00016384
     atom    3 type  3   force =     0.00009409    0.00009409   -0.00018903
     atom    4 type  3   force =    -0.00018903    0.00009409    0.00009409
     atom    5 type  3   force =     0.00009409   -0.00018903    0.00009409

     Total force =     0.000566     Total SCF correction =     0.000002


     Computing stress (Cartesian axis) and pressure


     negative rho (up, down):  6.688E-04 0.000E+00
          total   stress  (Ry/bohr**3)                   (kbar)     P=       -1.45
  -0.00000983  -0.00000000  -0.00000000           -1.45       -0.00       -0.00
  -0.00000000  -0.00000983  -0.00000000           -0.00       -1.45       -0.00
  -0.00000000  -0.00000000  -0.00000983           -0.00       -0.00       -1.45

     Energy error            =      1.7E-04 Ry
     Gradient error          =      1.9E-04 Ry/Bohr
     Cell gradient error     =      1.4E+00 kbar

     number of scf cycles    =   5
     number of bfgs steps    =   4

     enthalpy           old  =    -452.0757362510 Ry
     enthalpy           new  =    -452.0759024994 Ry

     CASE: enthalpy          _new < enthalpy          _old

     new trust radius        =       0.0008267407 bohr
     new conv_thr            =            1.0E-10 Ry

     new unit-cell volume =    230.52229 a.u.^3 (    34.15988 Ang^3 )
     density =      5.18845 g/cm^3

CELL_PARAMETERS (alat=  5.55330037)
   1.104128992  -0.000020376  -0.000020376
  -0.000020376   1.104128992  -0.000020376
  -0.000020376  -0.000020376   1.104128992

ATOMIC_POSITIONS (crystal)
Fe               0.5011588780        0.5011588780        0.5011588780
Ti               0.0003925935        0.0003925935        0.0003925935
H                0.5000325986        0.5000325986        0.0011293314
H                0.0011293314        0.5000325986        0.5000325986
H                0.5000325986        0.0011293314        0.5000325986



     Writing config-only to output data dir ./outputs/TiFe.save/ :
     XML data file     NEW-OLD atomic charge density approx. for the potential
     New effective cutoffs (rho, wfc):  928.32  116.11

     Check: negative core charge=   -0.000004

     negative rho (up, down):  6.681E-04 0.000E+00

     total cpu time spent up to now is      278.6 secs

     per-process dynamical memory:   167.1 Mb

     Self-consistent Calculation

     iteration #  1     ecut=   140.00 Ry     beta= 0.70
     Davidson diagonalization with overlap
     ethr =  1.00E-06,  avg # of iterations =  2.0

     Threshold (ethr) on eigenvalues was too large:
     Diagonalizing with lowered threshold

     Davidson diagonalization with overlap
     ethr =  1.42E-09,  avg # of iterations =  5.8

     negative rho (up, down):  6.687E-04 0.000E+00

     total cpu time spent up to now is      287.4 secs

     total energy              =    -452.07590362 Ry
     estimated scf accuracy    <       0.00000028 Ry

     iteration #  2     ecut=   140.00 Ry     beta= 0.70
     Davidson diagonalization with overlap
     ethr =  9.06E-10,  avg # of iterations =  5.1

     negative rho (up, down):  6.685E-04 0.000E+00

     total cpu time spent up to now is      291.5 secs

     total energy              =    -452.07590263 Ry
     estimated scf accuracy    <       0.00002268 Ry

     iteration #  3     ecut=   140.00 Ry     beta= 0.70
     Davidson diagonalization with overlap
     ethr =  9.06E-10,  avg # of iterations =  4.9

     negative rho (up, down):  6.685E-04 0.000E+00

     total cpu time spent up to now is      295.2 secs

     total energy              =    -452.07590376 Ry
     estimated scf accuracy    <       0.00000037 Ry

     iteration #  4     ecut=   140.00 Ry     beta= 0.70
     Davidson diagonalization with overlap
     ethr =  9.06E-10,  avg # of iterations =  2.0

     negative rho (up, down):  6.685E-04 0.000E+00

     total cpu time spent up to now is      298.3 secs

     total energy              =    -452.07590382 Ry
     estimated scf accuracy    <          8.6E-09 Ry

     iteration #  5     ecut=   140.00 Ry     beta= 0.70
     Davidson diagonalization with overlap
     ethr =  2.76E-11,  avg # of iterations =  3.8

     negative rho (up, down):  6.685E-04 0.000E+00

     total cpu time spent up to now is      301.7 secs

     total energy              =    -452.07590382 Ry
     estimated scf accuracy    <          5.9E-09 Ry

     iteration #  6     ecut=   140.00 Ry     beta= 0.70
     Davidson diagonalization with overlap
     ethr =  1.89E-11,  avg # of iterations =  2.0

     negative rho (up, down):  6.685E-04 0.000E+00

     total cpu time spent up to now is      304.7 secs

     End of self-consistent calculation

     Number of k-points >= 100: set verbosity='high' to print the bands.

     the Fermi energy is    14.5369 ev

!    total energy              =    -452.07590382 Ry
     estimated scf accuracy    <          7.5E-11 Ry
     smearing contrib. (-TS)   =      -0.00005164 Ry
     internal energy E=F+TS    =    -452.07585218 Ry

     The total energy is F=E-TS. E is the sum of the following terms:
     one-electron contribution =    -179.53083738 Ry
     hartree contribution      =     104.41807617 Ry
     xc contribution           =     -55.19607244 Ry
     ewald contribution        =    -245.61781047 Ry
     one-center paw contrib.   =     -76.14920806 Ry

     convergence has been achieved in   6 iterations

     negative rho (up, down):  6.685E-04 0.000E+00

     Forces acting on atoms (cartesian axes, Ry/au):

     atom    1 type  2   force =    -0.00016548   -0.00016548   -0.00016548
     atom    2 type  1   force =     0.00015609    0.00015609    0.00015609
     atom    3 type  3   force =     0.00008886    0.00008886   -0.00016833
     atom    4 type  3   force =    -0.00016833    0.00008886    0.00008886
     atom    5 type  3   force =     0.00008886   -0.00016833    0.00008886

     Total force =     0.000536     Total SCF correction =     0.000006


     Computing stress (Cartesian axis) and pressure


     negative rho (up, down):  6.685E-04 0.000E+00
          total   stress  (Ry/bohr**3)                   (kbar)     P=       -0.05
  -0.00000036   0.00000000   0.00000000           -0.05        0.00        0.00
   0.00000000  -0.00000036   0.00000000            0.00       -0.05        0.00
   0.00000000   0.00000000  -0.00000036            0.00        0.00       -0.05

     Energy error            =      1.3E-06 Ry
     Gradient error          =      1.7E-04 Ry/Bohr
     Cell gradient error     =      5.2E-02 kbar

     bfgs converged in   6 scf cycles and   5 bfgs steps
     (criteria: energy <  1.0E-04 Ry, force <  1.0E-03 Ry/Bohr, cell <  5.0E-01 kbar)

     End of BFGS Geometry Optimization

     Final enthalpy           =    -452.0759038221 Ry

     File ./outputs/TiFe.bfgs deleted, as requested
Begin final coordinates
     new unit-cell volume =    230.52229 a.u.^3 (    34.15988 Ang^3 )
     density =      5.18845 g/cm^3

CELL_PARAMETERS (alat=  5.55330037)
   1.104128992  -0.000020376  -0.000020376
  -0.000020376   1.104128992  -0.000020376
  -0.000020376  -0.000020376   1.104128992

ATOMIC_POSITIONS (crystal)
Fe               0.5011588780        0.5011588780        0.5011588780
Ti               0.0003925935        0.0003925935        0.0003925935
H                0.5000325986        0.5000325986        0.0011293314
H                0.0011293314        0.5000325986        0.5000325986
H                0.5000325986        0.0011293314        0.5000325986
End final coordinates



     Writing config-only to output data dir ./outputs/TiFe.save/ :
     XML data file
     Final scf calculation at the relaxed structure.
     The G-vectors are recalculated for the final unit cell
     Results may differ from those at the preceding step.

     Parallelization info
     --------------------
     sticks:   dense  smooth     PW     G-vecs:    dense   smooth      PW
     Min         418     210     60                18229     6453     984
     Max         421     211     61                18230     6454     987
     Sum        3357    1685    481               145837    51627    7881

     Using Slab Decomposition



     bravais-lattice index     =            0
     lattice parameter (alat)  =       5.5533  a.u.
     unit-cell volume          =     230.5223 (a.u.)^3
     number of atoms/cell      =            5
     number of atomic types    =            3
     number of electrons       =        31.00
     number of Kohn-Sham states=           20
     kinetic-energy cutoff     =     140.0000  Ry
     charge density cutoff     =    1120.0000  Ry
     scf convergence threshold =      1.0E-10
     mixing beta               =       0.7000
     number of iterations used =            8  plain     mixing
     press convergence thresh. =      5.0E-01
     Exchange-correlation= PBE
                           (   1   4   3   4   0   0   0)

     celldm(1)=   5.553300  celldm(2)=   0.000000  celldm(3)=   0.000000
     celldm(4)=   0.000000  celldm(5)=   0.000000  celldm(6)=   0.000000

     crystal axes: (cart. coord. in units of alat)
               a(1) = (   1.104129  -0.000020  -0.000020 )  
               a(2) = (  -0.000020   1.104129  -0.000020 )  
               a(3) = (  -0.000020  -0.000020   1.104129 )  

     reciprocal axes: (cart. coord. in units 2 pi/alat)
               b(1) = (  0.905691  0.000017  0.000017 )  
               b(2) = (  0.000017  0.905691  0.000017 )  
               b(3) = (  0.000017  0.000017  0.905691 )  


     PseudoPot. # 1 for Ti read from file:
     /vscmnt/antwerpen_storage_home/_user_antwerpen/211/vsc21140/pseudos/ti_pbe_v1.4.uspp.F.UPF
     MD5 check sum: 88a00a6731bd790ddea75d31a80cb452
     Pseudo is Ultrasoft + core correction, Zval = 12.0
     Generated by new atomic code, or converted to UPF format
     Using radial grid of  851 points,  6 beta functions with: 
                l(1) =   0
                l(2) =   0
                l(3) =   1
                l(4) =   1
                l(5) =   2
                l(6) =   2
     Q(r) pseudized with  6 coefficients,  rinner =    1.000   1.000   1.000
                                                       1.000   1.000

     PseudoPot. # 2 for Fe read from file:
     /vscmnt/antwerpen_storage_home/_user_antwerpen/211/vsc21140/pseudos/Fe.pbe-spn-kjpaw_psl.0.2.1.UPF
     MD5 check sum: e86618425769142926afa95317d90200
     Pseudo is Projector augmented-wave + core cor, Zval = 16.0
     Generated using "atomic" code by A. Dal Corso  v.5.0.99 svn rev. 10869
     Shape of augmentation charge: PSQ
     Using radial grid of 1191 points,  6 beta functions with: 
                l(1) =   0
                l(2) =   0
                l(3) =   1
                l(4) =   1
                l(5) =   2
                l(6) =   2
     Q(r) pseudized with 0 coefficients 


     PseudoPot. # 3 for H  read from file:
     /vscmnt/antwerpen_storage_home/_user_antwerpen/211/vsc21140/pseudos/H.pbe-rrkjus_psl.1.0.0.UPF
     MD5 check sum: f52b6d4d1c606e5624b1dc7b2218f220
     Pseudo is Ultrasoft, Zval =  1.0
     Generated using "atomic" code by A. Dal Corso  v.5.1
     Using radial grid of  929 points,  2 beta functions with: 
                l(1) =   0
                l(2) =   0
     Q(r) pseudized with 0 coefficients 


     atomic species   valence    mass     pseudopotential
     Ti               12.00    47.86700     Ti( 1.00)
     Fe               16.00    55.84500     Fe( 1.00)
     H                 1.00     1.00750     H ( 1.00)

      6 Sym. Ops. (no inversion) found



   Cartesian axes

     site n.     atom                  positions (alat units)
         1        Fe     tau(   1) = (   0.5533236   0.5533236   0.5533236  )
         2        Ti     tau(   2) = (   0.0004335   0.0004335   0.0004335  )
         3        H      tau(   3) = (   0.5520903   0.5520903   0.0012266  )
         4        H      tau(   4) = (   0.0012266   0.5520903   0.5520903  )
         5        H      tau(   5) = (   0.5520903   0.0012266   0.5520903  )

     number of k points=   146  Marzari-Vanderbilt smearing, width (Ry)=  0.0050

     Number of k-points >= 100: set verbosity='high' to print them.

     Dense  grid:   145837 G-vectors     FFT dimensions: (  72,  72,  72)

     Smooth grid:    51627 G-vectors     FFT dimensions: (  48,  48,  48)

     Estimated max dynamical RAM per process >     120.81 MB

     Estimated total dynamical RAM >     966.50 MB

     Check: negative core charge=   -0.000004

     Initial potential from superposition of free atoms

     starting charge      29.9995, renormalised to      31.0000

     negative rho (up, down):  1.469E-03 0.000E+00
     Starting wfcs are   26 randomized atomic wfcs
     Checking if some PAW data can be deallocated... 

     total cpu time spent up to now is      309.5 secs

     per-process dynamical memory:   174.7 Mb

     Self-consistent Calculation

     iteration #  1     ecut=   140.00 Ry     beta= 0.70
     Davidson diagonalization with overlap
     c_bands:  1 eigenvalues not converged
     c_bands:  3 eigenvalues not converged
     c_bands:  1 eigenvalues not converged
     c_bands:  1 eigenvalues not converged
     c_bands:  1 eigenvalues not converged
     c_bands:  1 eigenvalues not converged
     c_bands:  1 eigenvalues not converged
     c_bands:  1 eigenvalues not converged
     c_bands:  1 eigenvalues not converged
     c_bands:  1 eigenvalues not converged
     c_bands:  1 eigenvalues not converged
     ethr =  1.00E-06,  avg # of iterations = 16.0

     negative rho (up, down):  9.303E-05 0.000E+00

     total cpu time spent up to now is      324.2 secs

     total energy              =    -438.29921970 Ry
     estimated scf accuracy    <      17.16729508 Ry

     iteration #  2     ecut=   140.00 Ry     beta= 0.70
     Davidson diagonalization with overlap
     ethr =  1.00E-02,  avg # of iterations =  6.1

     negative rho (up, down):  2.930E-05 0.000E+00

     total cpu time spent up to now is      330.0 secs

     total energy              =    -451.97836219 Ry
     estimated scf accuracy    <      68.31459190 Ry

     iteration #  3     ecut=   140.00 Ry     beta= 0.70
     Davidson diagonalization with overlap
     ethr =  1.00E-02,  avg # of iterations =  2.9

     negative rho (up, down):  2.032E-04 0.000E+00

     total cpu time spent up to now is      334.0 secs

     total energy              =    -452.45421147 Ry
     estimated scf accuracy    <      17.07405289 Ry

     iteration #  4     ecut=   140.00 Ry     beta= 0.70
     Davidson diagonalization with overlap
     ethr =  1.00E-02,  avg # of iterations =  2.2

     negative rho (up, down):  2.155E-04 0.000E+00

     total cpu time spent up to now is      337.4 secs

     total energy              =    -452.93448651 Ry
     estimated scf accuracy    <       6.25006725 Ry

     iteration #  5     ecut=   140.00 Ry     beta= 0.70
     Davidson diagonalization with overlap
     ethr =  1.00E-02,  avg # of iterations =  1.0

     negative rho (up, down):  3.856E-04 0.000E+00

     total cpu time spent up to now is      340.2 secs

     total energy              =    -452.77845751 Ry
     estimated scf accuracy    <       6.01914438 Ry

     iteration #  6     ecut=   140.00 Ry     beta= 0.70
     Davidson diagonalization with overlap
     ethr =  1.00E-02,  avg # of iterations =  1.3

     negative rho (up, down):  1.314E-03 0.000E+00

     total cpu time spent up to now is      343.1 secs

     total energy              =    -451.16622519 Ry
     estimated scf accuracy    <       6.22317411 Ry

     iteration #  7     ecut=   140.00 Ry     beta= 0.70
     Davidson diagonalization with overlap
     ethr =  1.00E-02,  avg # of iterations =  4.2

     negative rho (up, down):  7.224E-04 0.000E+00

     total cpu time spent up to now is      347.0 secs

     total energy              =    -451.37485560 Ry
     estimated scf accuracy    <      15.31850951 Ry

     iteration #  8     ecut=   140.00 Ry     beta= 0.70
     Davidson diagonalization with overlap
     ethr =  1.00E-02,  avg # of iterations =  1.4

     negative rho (up, down):  8.850E-04 0.000E+00

     total cpu time spent up to now is      349.8 secs

     total energy              =    -452.01667083 Ry
     estimated scf accuracy    <       0.21129109 Ry

     iteration #  9     ecut=   140.00 Ry     beta= 0.70
     Davidson diagonalization with overlap
     ethr =  6.82E-04,  avg # of iterations =  3.4

     negative rho (up, down):  8.850E-04 0.000E+00

     total cpu time spent up to now is      353.1 secs

     total energy              =    -452.15156167 Ry
     estimated scf accuracy    <       2.47804482 Ry

     iteration # 10     ecut=   140.00 Ry     beta= 0.70
     Davidson diagonalization with overlap
     ethr =  6.82E-04,  avg # of iterations =  1.2

     negative rho (up, down):  5.960E-04 0.000E+00

     total cpu time spent up to now is      355.9 secs

     total energy              =    -451.80921435 Ry
     estimated scf accuracy    <       2.51329540 Ry

     iteration # 11     ecut=   140.00 Ry     beta= 0.70
     Davidson diagonalization with overlap
     ethr =  6.82E-04,  avg # of iterations =  3.5

     negative rho (up, down):  7.152E-04 0.000E+00

     total cpu time spent up to now is      359.2 secs

     total energy              =    -452.06915344 Ry
     estimated scf accuracy    <       1.02026451 Ry

     iteration # 12     ecut=   140.00 Ry     beta= 0.70
     Davidson diagonalization with overlap
     ethr =  6.82E-04,  avg # of iterations =  1.4

     negative rho (up, down):  7.893E-04 0.000E+00

     total cpu time spent up to now is      362.1 secs

     total energy              =    -452.06826489 Ry
     estimated scf accuracy    <       0.22862857 Ry

     iteration # 13     ecut=   140.00 Ry     beta= 0.70
     Davidson diagonalization with overlap
     ethr =  6.82E-04,  avg # of iterations =  1.8

     negative rho (up, down):  8.810E-04 0.000E+00

     total cpu time spent up to now is      365.0 secs

     total energy              =    -452.07738906 Ry
     estimated scf accuracy    <       0.00697068 Ry

     iteration # 14     ecut=   140.00 Ry     beta= 0.70
     Davidson diagonalization with overlap
     ethr =  2.25E-05,  avg # of iterations =  5.4

     negative rho (up, down):  8.710E-04 0.000E+00

     total cpu time spent up to now is      368.7 secs

     total energy              =    -452.07842069 Ry
     estimated scf accuracy    <       0.01250717 Ry

     iteration # 15     ecut=   140.00 Ry     beta= 0.70
     Davidson diagonalization with overlap
     ethr =  2.25E-05,  avg # of iterations =  1.2

     negative rho (up, down):  8.367E-04 0.000E+00

     total cpu time spent up to now is      371.6 secs

     total energy              =    -452.07631935 Ry
     estimated scf accuracy    <       0.02712916 Ry

     iteration # 16     ecut=   140.00 Ry     beta= 0.70
     Davidson diagonalization with overlap
     ethr =  2.25E-05,  avg # of iterations =  1.5

     negative rho (up, down):  7.806E-04 0.000E+00

     total cpu time spent up to now is      374.5 secs

     total energy              =    -452.07522757 Ry
     estimated scf accuracy    <       0.00400154 Ry

     iteration # 17     ecut=   140.00 Ry     beta= 0.70
     Davidson diagonalization with overlap
     ethr =  1.29E-05,  avg # of iterations =  3.2

     negative rho (up, down):  7.955E-04 0.000E+00

     total cpu time spent up to now is      378.0 secs

     total energy              =    -452.07627833 Ry
     estimated scf accuracy    <       0.00274702 Ry

     iteration # 18     ecut=   140.00 Ry     beta= 0.70
     Davidson diagonalization with overlap
     ethr =  8.86E-06,  avg # of iterations =  2.0

     negative rho (up, down):  7.744E-04 0.000E+00

     total cpu time spent up to now is      381.1 secs

     total energy              =    -452.07613720 Ry
     estimated scf accuracy    <       0.00156350 Ry

     iteration # 19     ecut=   140.00 Ry     beta= 0.70
     Davidson diagonalization with overlap
     ethr =  5.04E-06,  avg # of iterations =  2.0

     negative rho (up, down):  7.914E-04 0.000E+00

     total cpu time spent up to now is      384.2 secs

     total energy              =    -452.07621433 Ry
     estimated scf accuracy    <       0.00233921 Ry

     iteration # 20     ecut=   140.00 Ry     beta= 0.70
     Davidson diagonalization with overlap
     ethr =  5.04E-06,  avg # of iterations =  1.2

     negative rho (up, down):  7.868E-04 0.000E+00

     total cpu time spent up to now is      386.9 secs

     total energy              =    -452.07627813 Ry
     estimated scf accuracy    <       0.00039574 Ry

     iteration # 21     ecut=   140.00 Ry     beta= 0.70
     Davidson diagonalization with overlap
     ethr =  1.28E-06,  avg # of iterations =  1.5

     negative rho (up, down):  7.884E-04 0.000E+00

     total cpu time spent up to now is      389.7 secs

     total energy              =    -452.07629385 Ry
     estimated scf accuracy    <       0.00004213 Ry

     iteration # 22     ecut=   140.00 Ry     beta= 0.70
     Davidson diagonalization with overlap
     ethr =  1.36E-07,  avg # of iterations =  3.0

     negative rho (up, down):  7.888E-04 0.000E+00

     total cpu time spent up to now is      392.8 secs

     total energy              =    -452.07629711 Ry
     estimated scf accuracy    <       0.00000017 Ry

     iteration # 23     ecut=   140.00 Ry     beta= 0.70
     Davidson diagonalization with overlap
     ethr =  5.43E-10,  avg # of iterations =  5.8

     negative rho (up, down):  7.885E-04 0.000E+00

     total cpu time spent up to now is      398.0 secs

     total energy              =    -452.07629743 Ry
     estimated scf accuracy    <       0.00000023 Ry

     iteration # 24     ecut=   140.00 Ry     beta= 0.70
     Davidson diagonalization with overlap
     ethr =  5.43E-10,  avg # of iterations =  2.0

     negative rho (up, down):  7.884E-04 0.000E+00

     total cpu time spent up to now is      401.2 secs

     total energy              =    -452.07629745 Ry
     estimated scf accuracy    <          2.3E-09 Ry

     iteration # 25     ecut=   140.00 Ry     beta= 0.70
     Davidson diagonalization with overlap
     ethr =  7.47E-12,  avg # of iterations =  4.8

     negative rho (up, down):  7.884E-04 0.000E+00

     total cpu time spent up to now is      405.5 secs

     total energy              =    -452.07629745 Ry
     estimated scf accuracy    <          4.2E-09 Ry

     iteration # 26     ecut=   140.00 Ry     beta= 0.70
     Davidson diagonalization with overlap
     ethr =  7.47E-12,  avg # of iterations =  1.1

     negative rho (up, down):  7.884E-04 0.000E+00

     total cpu time spent up to now is      408.3 secs

     total energy              =    -452.07629745 Ry
     estimated scf accuracy    <          1.4E-10 Ry

     iteration # 27     ecut=   140.00 Ry     beta= 0.70
     Davidson diagonalization with overlap
     ethr =  4.42E-13,  avg # of iterations =  4.2

     negative rho (up, down):  7.884E-04 0.000E+00

     total cpu time spent up to now is      411.8 secs

     End of self-consistent calculation

     Number of k-points >= 100: set verbosity='high' to print the bands.

     the Fermi energy is    14.5369 ev

!    total energy              =    -452.07629745 Ry
     estimated scf accuracy    <          8.4E-12 Ry
     smearing contrib. (-TS)   =      -0.00005152 Ry
     internal energy E=F+TS    =    -452.07624594 Ry

     The total energy is F=E-TS. E is the sum of the following terms:
     one-electron contribution =    -179.53057679 Ry
     hartree contribution      =     104.41786174 Ry
     xc contribution           =     -55.19645657 Ry
     ewald contribution        =    -245.61781047 Ry
     one-center paw contrib.   =     -76.14926385 Ry

     convergence has been achieved in  27 iterations

     negative rho (up, down):  7.884E-04 0.000E+00

     Forces acting on atoms (cartesian axes, Ry/au):

     atom    1 type  2   force =    -0.00016011   -0.00016011   -0.00016011
     atom    2 type  1   force =     0.00015486    0.00015486    0.00015486
     atom    3 type  3   force =     0.00008746    0.00008746   -0.00016967
     atom    4 type  3   force =    -0.00016967    0.00008746    0.00008746
     atom    5 type  3   force =     0.00008746   -0.00016967    0.00008746

     Total force =     0.000530     Total SCF correction =     0.000001


     Computing stress (Cartesian axis) and pressure


     negative rho (up, down):  7.884E-04 0.000E+00
          total   stress  (Ry/bohr**3)                   (kbar)     P=        1.19
   0.00000809   0.00000000   0.00000000            1.19        0.00        0.00
   0.00000000   0.00000809   0.00000000            0.00        1.19        0.00
   0.00000000   0.00000000   0.00000809            0.00        0.00        1.19


     Writing all to output data dir ./outputs/TiFe.save/ :
     XML data file
     init_run     :      5.39s CPU      5.52s WALL (       2 calls)
     electrons    :    381.16s CPU    393.26s WALL (       7 calls)
     update_pot   :      0.56s CPU      0.64s WALL (       5 calls)
     forces       :      2.05s CPU      2.15s WALL (       7 calls)
     stress       :     10.25s CPU     10.51s WALL (       7 calls)

     Called by init_run:
     wfcinit      :      2.76s CPU      2.83s WALL (       2 calls)
     potinit      :      0.70s CPU      0.72s WALL (       2 calls)
     hinit0       :      1.18s CPU      1.20s WALL (       2 calls)

     Called by electrons:
     c_bands      :    309.29s CPU    316.57s WALL (     103 calls)
     sum_band     :     52.20s CPU     54.67s WALL (     103 calls)
     v_of_rho     :      1.33s CPU      1.46s WALL (     109 calls)
     newd         :      9.26s CPU     10.43s WALL (     109 calls)
     PAW_pot      :     10.57s CPU     11.75s WALL (     114 calls)
     mix_rho      :      0.16s CPU      0.18s WALL (     103 calls)

     Called by c_bands:
     init_us_2    :      7.53s CPU      7.76s WALL (   33142 calls)
     cegterg      :    297.40s CPU    304.26s WALL (   15038 calls)

     Called by *egterg:
     cdiaghg      :     27.86s CPU     28.44s WALL (   66824 calls)
     h_psi        :    231.91s CPU    237.51s WALL (   67992 calls)
     s_psi        :      6.09s CPU      6.26s WALL (   67992 calls)
     g_psi        :      1.33s CPU      1.36s WALL (   52662 calls)

     Called by h_psi:
     h_psi:calbec :      9.70s CPU      9.94s WALL (   67992 calls)
     vloc_psi     :    215.02s CPU    220.20s WALL (   67992 calls)
     add_vuspsi   :      6.28s CPU      6.46s WALL (   67992 calls)

     General routines
     calbec       :     15.12s CPU     15.51s WALL (  101134 calls)
     fft          :      1.59s CPU      1.74s WALL (    1584 calls)
     ffts         :      0.48s CPU      0.49s WALL (     212 calls)
     fftw         :    216.58s CPU    221.72s WALL ( 2019916 calls)
     interpolate  :      0.52s CPU      0.53s WALL (     109 calls)

     Parallel routines

     PWSCF        :    400.92s CPU    414.15s WALL


   This run was terminated on:  15:15:24   5Nov2025            

=------------------------------------------------------------------------------=
   JOB DONE.
=------------------------------------------------------------------------------=
