
     Program PWSCF v.7.4 starts on  5Nov2025 at 15:14:50 

     This program is part of the open-source Quantum ESPRESSO suite
     for quantum simulation of materials; please cite
         "P. Giannozzi et al., J. Phys.:Condens. Matter 21 395502 (2009);
         "P. Giannozzi et al., J. Phys.:Condens. Matter 29 465901 (2017);
         "P. Giannozzi et al., J. Chem. Phys. 152 154105 (2020);
          URL http://www.quantum-espresso.org", 
     in publications or presentations arising from this work. More details at
     http://www.quantum-espresso.org/quote

     Parallel version (MPI & OpenMP), running on       8 processor cores
     Number of MPI processes:                 8
     Threads/MPI process:                     1

     MPI processes distributed on     1 nodes
     199636 MiB available memory on the printing compute node when the environment starts

     Reading input from TiFe_H050500H000505.in

     Current dimensions of program PWSCF are:
     Max number of different atomic species (ntypx) = 10
     Max number of k-points (npk) =  40000
     Max angular momentum in pseudopotentials (lmaxx) =  4

     File ./outputs/TiFe.update deleted, as requested
     file Fe.pbe-spn-kjpaw_psl.0.2.1.UPF: wavefunction(s)  3D renormalized

     IMPORTANT: XC functional enforced from input :
     Exchange-correlation= PBE
                           (   1   4   3   4   0   0   0)
     Any further DFT definition will be discarded
     Please, verify this is what you really want

     Message from routine setup:
     using ibrav=0 with symmetry is DISCOURAGED, use correct ibrav instead

     R & G space division:  proc/nbgrp/npool/nimage =       8
     Subspace diagonalization in iterative solution of the eigenvalue problem:
     a serial algorithm will be used


     Parallelization info
     --------------------
     sticks:   dense  smooth     PW     G-vecs:    dense   smooth      PW
     Min         347     172     50                13774     4875     752
     Max         349     174     51                13775     4876     755
     Sum        2785    1389    401               110195    39007    6031

     Using Slab Decomposition



     bravais-lattice index     =            0
     lattice parameter (alat)  =       5.5533  a.u.
     unit-cell volume          =     174.0962 (a.u.)^3
     number of atoms/cell      =            4
     number of atomic types    =            3
     number of electrons       =        30.00
     number of Kohn-Sham states=           19
     kinetic-energy cutoff     =     140.0000  Ry
     charge density cutoff     =    1120.0000  Ry
     scf convergence threshold =      1.0E-08
     mixing beta               =       0.7000
     number of iterations used =            8  plain     mixing
     energy convergence thresh.=      1.0E-04
     force convergence thresh. =      1.0E-03
     press convergence thresh. =      5.0E-01
     Exchange-correlation= PBE
                           (   1   4   3   4   0   0   0)
     nstep                     =           50


     celldm(1)=   5.553300  celldm(2)=   0.000000  celldm(3)=   0.000000
     celldm(4)=   0.000000  celldm(5)=   0.000000  celldm(6)=   0.000000

     crystal axes: (cart. coord. in units of alat)
               a(1) = (   1.005492   0.000000   0.000000 )  
               a(2) = (   0.000000   1.005492   0.000000 )  
               a(3) = (   0.000000   0.000000   1.005492 )  

     reciprocal axes: (cart. coord. in units 2 pi/alat)
               b(1) = (  0.994538  0.000000  0.000000 )  
               b(2) = (  0.000000  0.994538  0.000000 )  
               b(3) = (  0.000000  0.000000  0.994538 )  


     PseudoPot. # 1 for Ti read from file:
     /vscmnt/antwerpen_storage_home/_user_antwerpen/211/vsc21140/pseudos/ti_pbe_v1.4.uspp.F.UPF
     MD5 check sum: 88a00a6731bd790ddea75d31a80cb452
     Pseudo is Ultrasoft + core correction, Zval = 12.0
     Generated by new atomic code, or converted to UPF format
     Using radial grid of  851 points,  6 beta functions with: 
                l(1) =   0
                l(2) =   0
                l(3) =   1
                l(4) =   1
                l(5) =   2
                l(6) =   2
     Q(r) pseudized with  6 coefficients,  rinner =    1.000   1.000   1.000
                                                       1.000   1.000

     PseudoPot. # 2 for Fe read from file:
     /vscmnt/antwerpen_storage_home/_user_antwerpen/211/vsc21140/pseudos/Fe.pbe-spn-kjpaw_psl.0.2.1.UPF
     MD5 check sum: e86618425769142926afa95317d90200
     Pseudo is Projector augmented-wave + core cor, Zval = 16.0
     Generated using "atomic" code by A. Dal Corso  v.5.0.99 svn rev. 10869
     Shape of augmentation charge: PSQ
     Using radial grid of 1191 points,  6 beta functions with: 
                l(1) =   0
                l(2) =   0
                l(3) =   1
                l(4) =   1
                l(5) =   2
                l(6) =   2
     Q(r) pseudized with 0 coefficients 


     PseudoPot. # 3 for H  read from file:
     /vscmnt/antwerpen_storage_home/_user_antwerpen/211/vsc21140/pseudos/H.pbe-rrkjus_psl.1.0.0.UPF
     MD5 check sum: f52b6d4d1c606e5624b1dc7b2218f220
     Pseudo is Ultrasoft, Zval =  1.0
     Generated using "atomic" code by A. Dal Corso  v.5.1
     Using radial grid of  929 points,  2 beta functions with: 
                l(1) =   0
                l(2) =   0
     Q(r) pseudized with 0 coefficients 


     atomic species   valence    mass     pseudopotential
     Ti               12.00    47.86700     Ti( 1.00)
     Fe               16.00    55.84500     Fe( 1.00)
     H                 1.00     1.00750     H ( 1.00)

      2 Sym. Ops. (no inversion) found



   Cartesian axes

     site n.     atom                  positions (alat units)
         1        Fe     tau(   1) = (   0.5055071   0.5055071   0.5055071  )
         2        Ti     tau(   2) = (   0.0000000   0.0000000   0.0000000  )
         3        H      tau(   3) = (   0.5027460   0.5027460   0.0000000  )
         4        H      tau(   4) = (   0.0000000   0.5027460   0.5027460  )

     number of k points=   366  Marzari-Vanderbilt smearing, width (Ry)=  0.0050

     Number of k-points >= 100: set verbosity='high' to print them.

     Dense  grid:   110195 G-vectors     FFT dimensions: (  60,  60,  60)

     Smooth grid:    39007 G-vectors     FFT dimensions: (  45,  45,  45)

     Estimated max dynamical RAM per process >     131.89 MB

     Estimated total dynamical RAM >       1.03 GB

     Check: negative core charge=   -0.000005

     Initial potential from superposition of free atoms

     starting charge      28.9995, renormalised to      30.0000

     negative rho (up, down):  1.418E-03 0.000E+00
     Starting wfcs are   25 randomized atomic wfcs
     Checking if some PAW data can be deallocated... 

     total cpu time spent up to now is        4.8 secs

     per-process dynamical memory:   202.1 Mb

     Self-consistent Calculation

     iteration #  1     ecut=   140.00 Ry     beta= 0.70
     Davidson diagonalization with overlap
     ethr =  1.00E-02,  avg # of iterations =  2.2

     negative rho (up, down):  9.440E-05 0.000E+00

     total cpu time spent up to now is       12.1 secs

     total energy              =    -441.38936921 Ry
     estimated scf accuracy    <      12.05816891 Ry

     iteration #  2     ecut=   140.00 Ry     beta= 0.70
     Davidson diagonalization with overlap
     ethr =  1.00E-02,  avg # of iterations =  5.7

     negative rho (up, down):  9.415E-05 0.000E+00

     total cpu time spent up to now is       23.9 secs

     total energy              =    -450.68536803 Ry
     estimated scf accuracy    <      50.29213286 Ry

     iteration #  3     ecut=   140.00 Ry     beta= 0.70
     Davidson diagonalization with overlap
     ethr =  1.00E-02,  avg # of iterations =  2.6

     negative rho (up, down):  3.287E-04 0.000E+00

     total cpu time spent up to now is       32.3 secs

     total energy              =    -450.90205284 Ry
     estimated scf accuracy    <      12.34102683 Ry

     iteration #  4     ecut=   140.00 Ry     beta= 0.70
     Davidson diagonalization with overlap
     ethr =  1.00E-02,  avg # of iterations =  2.3

     negative rho (up, down):  3.214E-04 0.000E+00

     total cpu time spent up to now is       39.0 secs

     total energy              =    -451.28610802 Ry
     estimated scf accuracy    <       3.94383892 Ry

     iteration #  5     ecut=   140.00 Ry     beta= 0.70
     Davidson diagonalization with overlap
     ethr =  1.00E-02,  avg # of iterations =  1.0

     negative rho (up, down):  4.221E-04 0.000E+00

     total cpu time spent up to now is       44.8 secs

     total energy              =    -450.76334932 Ry
     estimated scf accuracy    <       3.76390819 Ry

     iteration #  6     ecut=   140.00 Ry     beta= 0.70
     Davidson diagonalization with overlap
     ethr =  1.00E-02,  avg # of iterations =  1.5

     negative rho (up, down):  4.819E-04 0.000E+00

     total cpu time spent up to now is       50.7 secs

     total energy              =    -450.85667837 Ry
     estimated scf accuracy    <       0.72456859 Ry

     iteration #  7     ecut=   140.00 Ry     beta= 0.70
     Davidson diagonalization with overlap
     ethr =  2.42E-03,  avg # of iterations =  2.5

     negative rho (up, down):  8.280E-04 0.000E+00

     total cpu time spent up to now is       57.1 secs

     total energy              =    -450.83881078 Ry
     estimated scf accuracy    <       0.24584254 Ry

     iteration #  8     ecut=   140.00 Ry     beta= 0.70
     Davidson diagonalization with overlap
     ethr =  8.19E-04,  avg # of iterations =  3.5

     negative rho (up, down):  9.210E-04 0.000E+00

     total cpu time spent up to now is       64.6 secs

     total energy              =    -450.86275950 Ry
     estimated scf accuracy    <       0.13395140 Ry

     iteration #  9     ecut=   140.00 Ry     beta= 0.70
     Davidson diagonalization with overlap
     ethr =  4.47E-04,  avg # of iterations =  2.6

     negative rho (up, down):  1.008E-03 0.000E+00

     total cpu time spent up to now is       71.0 secs

     total energy              =    -450.92885512 Ry
     estimated scf accuracy    <       0.44396650 Ry

     iteration # 10     ecut=   140.00 Ry     beta= 0.70
     Davidson diagonalization with overlap
     ethr =  4.47E-04,  avg # of iterations =  1.8

     negative rho (up, down):  1.106E-03 0.000E+00

     total cpu time spent up to now is       77.2 secs

     total energy              =    -450.99488223 Ry
     estimated scf accuracy    <       1.11813381 Ry

     iteration # 11     ecut=   140.00 Ry     beta= 0.70
     Davidson diagonalization with overlap
     ethr =  4.47E-04,  avg # of iterations =  2.2

     negative rho (up, down):  7.324E-04 0.000E+00

     total cpu time spent up to now is       83.5 secs

     total energy              =    -450.82177382 Ry
     estimated scf accuracy    <       2.40219088 Ry

     iteration # 12     ecut=   140.00 Ry     beta= 0.70
     Davidson diagonalization with overlap
     ethr =  4.47E-04,  avg # of iterations =  2.1

     negative rho (up, down):  3.211E-04 0.000E+00

     total cpu time spent up to now is       90.6 secs

     total energy              =    -450.67028993 Ry
     estimated scf accuracy    <       0.62909137 Ry

     iteration # 13     ecut=   140.00 Ry     beta= 0.70
     Davidson diagonalization with overlap
     ethr =  4.47E-04,  avg # of iterations =  4.9

     negative rho (up, down):  3.381E-04 0.000E+00

     total cpu time spent up to now is       99.6 secs

     total energy              =    -450.92129151 Ry
     estimated scf accuracy    <       1.60537982 Ry

     iteration # 14     ecut=   140.00 Ry     beta= 0.70
     Davidson diagonalization with overlap
     ethr =  4.47E-04,  avg # of iterations =  1.4

     negative rho (up, down):  3.300E-04 0.000E+00

     total cpu time spent up to now is      105.5 secs

     total energy              =    -450.92699753 Ry
     estimated scf accuracy    <       0.89558245 Ry

     iteration # 15     ecut=   140.00 Ry     beta= 0.70
     Davidson diagonalization with overlap
     ethr =  4.47E-04,  avg # of iterations =  1.0

     negative rho (up, down):  6.443E-04 0.000E+00

     total cpu time spent up to now is      111.2 secs

     total energy              =    -450.82858276 Ry
     estimated scf accuracy    <       0.80655311 Ry

     iteration # 16     ecut=   140.00 Ry     beta= 0.70
     Davidson diagonalization with overlap
     ethr =  4.47E-04,  avg # of iterations =  2.4

     negative rho (up, down):  1.221E-03 0.000E+00

     total cpu time spent up to now is      117.6 secs

     total energy              =    -450.81008851 Ry
     estimated scf accuracy    <       0.27984921 Ry

     iteration # 17     ecut=   140.00 Ry     beta= 0.70
     Davidson diagonalization with overlap
     ethr =  4.47E-04,  avg # of iterations =  3.3

     negative rho (up, down):  4.810E-04 0.000E+00

     total cpu time spent up to now is      125.0 secs

     total energy              =    -450.80512542 Ry
     estimated scf accuracy    <       0.06834585 Ry

     iteration # 18     ecut=   140.00 Ry     beta= 0.70
     Davidson diagonalization with overlap
     ethr =  2.28E-04,  avg # of iterations =  3.5

     negative rho (up, down):  7.600E-04 0.000E+00

     total cpu time spent up to now is      133.5 secs

     total energy              =    -450.83191197 Ry
     estimated scf accuracy    <       0.35977372 Ry

     iteration # 19     ecut=   140.00 Ry     beta= 0.70
     Davidson diagonalization with overlap
     ethr =  2.28E-04,  avg # of iterations =  1.6

     negative rho (up, down):  7.112E-04 0.000E+00

     total cpu time spent up to now is      139.6 secs

     total energy              =    -450.83333450 Ry
     estimated scf accuracy    <       0.12723412 Ry

     iteration # 20     ecut=   140.00 Ry     beta= 0.70
     Davidson diagonalization with overlap
     ethr =  2.28E-04,  avg # of iterations =  1.0

     negative rho (up, down):  8.005E-04 0.000E+00

     total cpu time spent up to now is      145.5 secs

     total energy              =    -450.82972327 Ry
     estimated scf accuracy    <       0.05577405 Ry

     iteration # 21     ecut=   140.00 Ry     beta= 0.70
     Davidson diagonalization with overlap
     ethr =  1.86E-04,  avg # of iterations =  1.3

     negative rho (up, down):  8.036E-04 0.000E+00

     total cpu time spent up to now is      151.5 secs

     total energy              =    -450.83094323 Ry
     estimated scf accuracy    <       0.01040998 Ry

     iteration # 22     ecut=   140.00 Ry     beta= 0.70
     Davidson diagonalization with overlap
     ethr =  3.47E-05,  avg # of iterations =  2.0

     negative rho (up, down):  8.100E-04 0.000E+00

     total cpu time spent up to now is      157.7 secs

     total energy              =    -450.83107409 Ry
     estimated scf accuracy    <       0.00541695 Ry

     iteration # 23     ecut=   140.00 Ry     beta= 0.70
     Davidson diagonalization with overlap
     ethr =  1.81E-05,  avg # of iterations =  1.3

     negative rho (up, down):  8.100E-04 0.000E+00

     total cpu time spent up to now is      163.7 secs

     total energy              =    -450.83102354 Ry
     estimated scf accuracy    <       0.00416928 Ry

     iteration # 24     ecut=   140.00 Ry     beta= 0.70
     Davidson diagonalization with overlap
     ethr =  1.39E-05,  avg # of iterations =  1.1

     negative rho (up, down):  8.320E-04 0.000E+00

     total cpu time spent up to now is      169.6 secs

     total energy              =    -450.83076322 Ry
     estimated scf accuracy    <       0.00238160 Ry

     iteration # 25     ecut=   140.00 Ry     beta= 0.70
     Davidson diagonalization with overlap
     ethr =  7.94E-06,  avg # of iterations =  2.2

     negative rho (up, down):  8.358E-04 0.000E+00

     total cpu time spent up to now is      176.0 secs

     total energy              =    -450.83090480 Ry
     estimated scf accuracy    <       0.00004052 Ry

     iteration # 26     ecut=   140.00 Ry     beta= 0.70
     Davidson diagonalization with overlap
     ethr =  1.35E-07,  avg # of iterations =  5.1

     negative rho (up, down):  8.369E-04 0.000E+00

     total cpu time spent up to now is      185.0 secs

     total energy              =    -450.83093241 Ry
     estimated scf accuracy    <       0.00001061 Ry

     iteration # 27     ecut=   140.00 Ry     beta= 0.70
     Davidson diagonalization with overlap
     ethr =  3.54E-08,  avg # of iterations =  1.4

     negative rho (up, down):  8.406E-04 0.000E+00

     total cpu time spent up to now is      191.0 secs

     total energy              =    -450.83093117 Ry
     estimated scf accuracy    <       0.00000678 Ry

     iteration # 28     ecut=   140.00 Ry     beta= 0.70
     Davidson diagonalization with overlap
     ethr =  2.26E-08,  avg # of iterations =  1.6

     negative rho (up, down):  8.437E-04 0.000E+00

     total cpu time spent up to now is      197.2 secs

     total energy              =    -450.83093068 Ry
     estimated scf accuracy    <       0.00000317 Ry

     iteration # 29     ecut=   140.00 Ry     beta= 0.70
     Davidson diagonalization with overlap
     ethr =  1.06E-08,  avg # of iterations =  2.3

     negative rho (up, down):  8.440E-04 0.000E+00

     total cpu time spent up to now is      204.1 secs

     total energy              =    -450.83093102 Ry
     estimated scf accuracy    <       0.00000030 Ry

     iteration # 30     ecut=   140.00 Ry     beta= 0.70
     Davidson diagonalization with overlap
     ethr =  1.01E-09,  avg # of iterations =  3.8

     negative rho (up, down):  8.438E-04 0.000E+00

     total cpu time spent up to now is      211.5 secs

     End of self-consistent calculation

     Number of k-points >= 100: set verbosity='high' to print the bands.

     the Fermi energy is    19.2062 ev

!    total energy              =    -450.83093108 Ry
     estimated scf accuracy    <          1.5E-09 Ry
     smearing contrib. (-TS)   =       0.00004845 Ry
     internal energy E=F+TS    =    -450.83097953 Ry

     The total energy is F=E-TS. E is the sum of the following terms:
     one-electron contribution =    -146.21165948 Ry
     hartree contribution      =      92.15096432 Ry
     xc contribution           =     -54.88526538 Ry
     ewald contribution        =    -265.72974653 Ry
     one-center paw contrib.   =     -76.15527246 Ry

     convergence has been achieved in  30 iterations

     negative rho (up, down):  8.438E-04 0.000E+00

     Forces acting on atoms (cartesian axes, Ry/au):

     atom    1 type  2   force =    -0.00892667   -0.00093787   -0.00892667
     atom    2 type  1   force =     0.00157837    0.00209304    0.00157837
     atom    3 type  3   force =    -0.00049884   -0.00057758    0.00784714
     atom    4 type  3   force =     0.00784714   -0.00057758   -0.00049884

     Total force =     0.017145     Total SCF correction =     0.000003


     Computing stress (Cartesian axis) and pressure


     negative rho (up, down):  8.438E-04 0.000E+00
          total   stress  (Ry/bohr**3)                   (kbar)     P=      568.38
   0.00516971  -0.00000051  -0.00000120          760.49       -0.07       -0.18
  -0.00000051   0.00125192  -0.00000051           -0.07      184.16       -0.07
  -0.00000120  -0.00000051   0.00516971           -0.18       -0.07      760.49


     BFGS Geometry Optimization
     Energy error            =      2.0E-01 Ry
     Gradient error          =      8.9E-03 Ry/Bohr
     Cell gradient error     =      7.6E+02 kbar

     number of scf cycles    =   1
     number of bfgs steps    =   0

     enthalpy           new  =    -450.8309310797 Ry

     new trust radius        =       0.3410599743 bohr
     new conv_thr            =       0.0000000100 Ry

     new unit-cell volume =    228.95392 a.u.^3 (    33.92747 Ang^3 )
     density =      5.17468 g/cm^3

CELL_PARAMETERS (alat=  5.55330037)
   1.135444515  -0.000012790  -0.000030244
  -0.000012790   1.036961806  -0.000012790
  -0.000030244  -0.000012790   1.135444515

ATOMIC_POSITIONS (crystal)
Fe               0.5011473261        0.5025780367        0.5011473261
Ti               0.0002826704        0.0003748414        0.0002826704
H                0.4999106628        0.4998965609        0.0014053406
H                0.0014053406        0.4998965609        0.4999106628



     Writing config-only to output data dir ./outputs/TiFe.save/ :
     XML data file     NEW-OLD atomic charge density approx. for the potential
     New effective cutoffs (rho, wfc): 1041.94  131.38

     Check: negative core charge=   -0.000004

     negative rho (up, down):  8.715E-04 0.000E+00

     total cpu time spent up to now is      214.8 secs

     per-process dynamical memory:   206.0 Mb

     Self-consistent Calculation

     iteration #  1     ecut=   140.00 Ry     beta= 0.70
     Davidson diagonalization with overlap
     c_bands:  1 eigenvalues not converged
     c_bands:  1 eigenvalues not converged
     c_bands:  1 eigenvalues not converged
     c_bands:  1 eigenvalues not converged
     c_bands:  1 eigenvalues not converged
     c_bands:  1 eigenvalues not converged
     c_bands:  1 eigenvalues not converged
     c_bands:  1 eigenvalues not converged
     c_bands:  1 eigenvalues not converged
     c_bands:  1 eigenvalues not converged
     c_bands:  1 eigenvalues not converged
     c_bands:  1 eigenvalues not converged
     c_bands:  1 eigenvalues not converged
     ethr =  1.00E-06,  avg # of iterations = 16.7

     negative rho (up, down):  6.234E-04 0.000E+00

     total cpu time spent up to now is      248.7 secs

     total energy              =    -450.88229509 Ry
     estimated scf accuracy    <       0.03920347 Ry

     iteration #  2     ecut=   140.00 Ry     beta= 0.70
     Davidson diagonalization with overlap
     ethr =  1.31E-04,  avg # of iterations =  5.7

     negative rho (up, down):  6.780E-04 0.000E+00

     total cpu time spent up to now is      259.1 secs

     total energy              =    -450.79199198 Ry
     estimated scf accuracy    <       2.24498917 Ry

     iteration #  3     ecut=   140.00 Ry     beta= 0.70
     Davidson diagonalization with overlap
     ethr =  1.31E-04,  avg # of iterations =  4.7

     negative rho (up, down):  7.223E-04 0.000E+00

     total cpu time spent up to now is      268.3 secs

     total energy              =    -450.90399982 Ry
     estimated scf accuracy    <       0.02504933 Ry

     iteration #  4     ecut=   140.00 Ry     beta= 0.70
     Davidson diagonalization with overlap
     ethr =  8.35E-05,  avg # of iterations =  2.5

     negative rho (up, down):  7.373E-04 0.000E+00

     total cpu time spent up to now is      275.4 secs

     total energy              =    -450.90817413 Ry
     estimated scf accuracy    <       0.00432061 Ry

     iteration #  5     ecut=   140.00 Ry     beta= 0.70
     Davidson diagonalization with overlap
     ethr =  1.44E-05,  avg # of iterations =  4.5

     negative rho (up, down):  7.198E-04 0.000E+00

     total cpu time spent up to now is      283.8 secs

     total energy              =    -450.90892396 Ry
     estimated scf accuracy    <       0.00285114 Ry

     iteration #  6     ecut=   140.00 Ry     beta= 0.70
     Davidson diagonalization with overlap
     ethr =  9.50E-06,  avg # of iterations =  1.4

     negative rho (up, down):  7.146E-04 0.000E+00

     total cpu time spent up to now is      289.9 secs

     total energy              =    -450.90908500 Ry
     estimated scf accuracy    <       0.00009339 Ry

     iteration #  7     ecut=   140.00 Ry     beta= 0.70
     Davidson diagonalization with overlap
     ethr =  3.11E-07,  avg # of iterations =  4.6

     negative rho (up, down):  7.128E-04 0.000E+00

     total cpu time spent up to now is      298.4 secs

     total energy              =    -450.90913100 Ry
     estimated scf accuracy    <       0.00000177 Ry

     iteration #  8     ecut=   140.00 Ry     beta= 0.70
     Davidson diagonalization with overlap
     ethr =  5.91E-09,  avg # of iterations =  5.0

     negative rho (up, down):  7.126E-04 0.000E+00

     total cpu time spent up to now is      308.1 secs

     total energy              =    -450.90913207 Ry
     estimated scf accuracy    <       0.00000104 Ry

     iteration #  9     ecut=   140.00 Ry     beta= 0.70
     Davidson diagonalization with overlap
     ethr =  3.46E-09,  avg # of iterations =  2.0

     negative rho (up, down):  7.128E-04 0.000E+00

     total cpu time spent up to now is      315.0 secs

     total energy              =    -450.90913208 Ry
     estimated scf accuracy    <       0.00000170 Ry

     iteration # 10     ecut=   140.00 Ry     beta= 0.70
     Davidson diagonalization with overlap
     ethr =  3.46E-09,  avg # of iterations =  1.5

     negative rho (up, down):  7.127E-04 0.000E+00

     total cpu time spent up to now is      321.1 secs

     End of self-consistent calculation

     Number of k-points >= 100: set verbosity='high' to print the bands.

     the Fermi energy is    13.8510 ev

!    total energy              =    -450.90913219 Ry
     estimated scf accuracy    <          4.2E-09 Ry
     smearing contrib. (-TS)   =      -0.00001079 Ry
     internal energy E=F+TS    =    -450.90912139 Ry

     The total energy is F=E-TS. E is the sum of the following terms:
     one-electron contribution =    -181.25856924 Ry
     hartree contribution      =     103.85937502 Ry
     xc contribution           =     -54.24990740 Ry
     ewald contribution        =    -243.11121441 Ry
     one-center paw contrib.   =     -76.14880537 Ry

     convergence has been achieved in  10 iterations

     negative rho (up, down):  7.127E-04 0.000E+00

     Forces acting on atoms (cartesian axes, Ry/au):

     atom    1 type  2   force =     0.00027723   -0.00083315    0.00027723
     atom    2 type  1   force =     0.00010054    0.00051631    0.00010054
     atom    3 type  3   force =     0.00012972    0.00015842   -0.00050748
     atom    4 type  3   force =    -0.00050748    0.00015842    0.00012972

     Total force =     0.001317     Total SCF correction =     0.000043


     Computing stress (Cartesian axis) and pressure


     negative rho (up, down):  7.127E-04 0.000E+00
          total   stress  (Ry/bohr**3)                   (kbar)     P=     -129.70
  -0.00067209  -0.00000006   0.00000003          -98.87       -0.01        0.01
  -0.00000006  -0.00130077  -0.00000006           -0.01     -191.35       -0.01
   0.00000003  -0.00000006  -0.00067209            0.01       -0.01      -98.87

     Energy error            =      7.8E-02 Ry
     Gradient error          =      8.3E-04 Ry/Bohr
     Cell gradient error     =      1.9E+02 kbar

     number of scf cycles    =   2
     number of bfgs steps    =   1

     enthalpy           old  =    -450.8309310797 Ry
     enthalpy           new  =    -450.9091321851 Ry

     CASE: enthalpy          _new < enthalpy          _old

     new trust radius        =       0.1002237170 bohr
     new conv_thr            =            1.0E-10 Ry

     new unit-cell volume =    216.30030 a.u.^3 (    32.05240 Ang^3 )
     density =      5.47740 g/cm^3

CELL_PARAMETERS (alat=  5.55330037)
   1.122364022  -0.000015139  -0.000030652
  -0.000015100   1.002619518  -0.000015100
  -0.000030652  -0.000015139   1.122364022

ATOMIC_POSITIONS (crystal)
Fe               0.5011512535        0.5024435839        0.5011512535
Ti               0.0003075059        0.0004655126        0.0003075059
H                0.4999303836        0.4999184518        0.0013568571
H                0.0013568571        0.4999184518        0.4999303836



     Writing config-only to output data dir ./outputs/TiFe.save/ :
     XML data file     NEW-OLD atomic charge density approx. for the potential
     New effective cutoffs (rho, wfc): 1112.66  140.47

     Check: negative core charge=   -0.000005

     negative rho (up, down):  6.841E-04 0.000E+00

     total cpu time spent up to now is      324.5 secs

     per-process dynamical memory:   206.0 Mb

     Self-consistent Calculation

     iteration #  1     ecut=   140.00 Ry     beta= 0.70
     Davidson diagonalization with overlap
     ethr =  1.00E-06,  avg # of iterations =  8.8

     negative rho (up, down):  7.107E-04 0.000E+00

     total cpu time spent up to now is      343.0 secs

     total energy              =    -450.91800604 Ry
     estimated scf accuracy    <       0.00190498 Ry

     iteration #  2     ecut=   140.00 Ry     beta= 0.70
     Davidson diagonalization with overlap
     ethr =  6.35E-06,  avg # of iterations =  5.4

     negative rho (up, down):  7.321E-04 0.000E+00

     total cpu time spent up to now is      353.3 secs

     total energy              =    -450.90951152 Ry
     estimated scf accuracy    <       0.18125105 Ry

     iteration #  3     ecut=   140.00 Ry     beta= 0.70
     Davidson diagonalization with overlap
     ethr =  6.35E-06,  avg # of iterations =  5.1

     negative rho (up, down):  7.198E-04 0.000E+00

     total cpu time spent up to now is      363.1 secs

     total energy              =    -450.91905885 Ry
     estimated scf accuracy    <       0.00205733 Ry

     iteration #  4     ecut=   140.00 Ry     beta= 0.70
     Davidson diagonalization with overlap
     ethr =  6.35E-06,  avg # of iterations =  1.7

     negative rho (up, down):  7.243E-04 0.000E+00

     total cpu time spent up to now is      369.3 secs

     total energy              =    -450.91922466 Ry
     estimated scf accuracy    <       0.00007325 Ry

     iteration #  5     ecut=   140.00 Ry     beta= 0.70
     Davidson diagonalization with overlap
     ethr =  2.44E-07,  avg # of iterations =  3.8

     negative rho (up, down):  7.270E-04 0.000E+00

     total cpu time spent up to now is      377.2 secs

     total energy              =    -450.91924282 Ry
     estimated scf accuracy    <       0.00001143 Ry

     iteration #  6     ecut=   140.00 Ry     beta= 0.70
     Davidson diagonalization with overlap
     ethr =  3.81E-08,  avg # of iterations =  3.4

     negative rho (up, down):  7.280E-04 0.000E+00

     total cpu time spent up to now is      385.0 secs

     total energy              =    -450.91924511 Ry
     estimated scf accuracy    <       0.00000146 Ry

     iteration #  7     ecut=   140.00 Ry     beta= 0.70
     Davidson diagonalization with overlap
     ethr =  4.87E-09,  avg # of iterations =  4.0

     negative rho (up, down):  7.280E-04 0.000E+00

     total cpu time spent up to now is      393.1 secs

     total energy              =    -450.91924551 Ry
     estimated scf accuracy    <       0.00000007 Ry

     iteration #  8     ecut=   140.00 Ry     beta= 0.70
     Davidson diagonalization with overlap
     ethr =  2.27E-10,  avg # of iterations =  4.7

     negative rho (up, down):  7.280E-04 0.000E+00

     total cpu time spent up to now is      402.5 secs

     total energy              =    -450.91924555 Ry
     estimated scf accuracy    <          9.7E-09 Ry

     iteration #  9     ecut=   140.00 Ry     beta= 0.70
     Davidson diagonalization with overlap
     ethr =  3.22E-11,  avg # of iterations =  3.8

     negative rho (up, down):  7.280E-04 0.000E+00

     total cpu time spent up to now is      410.5 secs

     total energy              =    -450.91924555 Ry
     estimated scf accuracy    <          3.4E-10 Ry

     iteration # 10     ecut=   140.00 Ry     beta= 0.70
     Davidson diagonalization with overlap
     ethr =  1.12E-12,  avg # of iterations =  4.7

     negative rho (up, down):  7.280E-04 0.000E+00

     total cpu time spent up to now is      419.7 secs

     total energy              =    -450.91924555 Ry
     estimated scf accuracy    <          3.1E-10 Ry

     iteration # 11     ecut=   140.00 Ry     beta= 0.70
     Davidson diagonalization with overlap
     ethr =  1.02E-12,  avg # of iterations =  2.4

     negative rho (up, down):  7.280E-04 0.000E+00

     total cpu time spent up to now is      426.8 secs

     End of self-consistent calculation

     Number of k-points >= 100: set verbosity='high' to print the bands.

     the Fermi energy is    14.7931 ev

!    total energy              =    -450.91924555 Ry
     estimated scf accuracy    <          8.1E-13 Ry
     smearing contrib. (-TS)   =       0.00002683 Ry
     internal energy E=F+TS    =    -450.91927238 Ry

     The total energy is F=E-TS. E is the sum of the following terms:
     one-electron contribution =    -173.74224349 Ry
     hartree contribution      =     101.18858062 Ry
     xc contribution           =     -54.34933065 Ry
     ewald contribution        =    -247.86609622 Ry
     one-center paw contrib.   =     -76.15018264 Ry

     convergence has been achieved in  11 iterations

     negative rho (up, down):  7.280E-04 0.000E+00

     Forces acting on atoms (cartesian axes, Ry/au):

     atom    1 type  2   force =     0.00020806   -0.00085044    0.00020806
     atom    2 type  1   force =     0.00012934    0.00057686    0.00012934
     atom    3 type  3   force =     0.00012633    0.00013679   -0.00046373
     atom    4 type  3   force =    -0.00046373    0.00013679    0.00012633

     Total force =     0.001294     Total SCF correction =     0.000001


     Computing stress (Cartesian axis) and pressure


     negative rho (up, down):  7.280E-04 0.000E+00
          total   stress  (Ry/bohr**3)                   (kbar)     P=      -56.34
  -0.00020447   0.00000012   0.00000006          -30.08        0.02        0.01
   0.00000012  -0.00074002   0.00000012            0.02     -108.86        0.02
   0.00000006   0.00000012  -0.00020447            0.01        0.02      -30.08

     Energy error            =      1.0E-02 Ry
     Gradient error          =      8.5E-04 Ry/Bohr
     Cell gradient error     =      1.1E+02 kbar

     number of scf cycles    =   3
     number of bfgs steps    =   2

     enthalpy           old  =    -450.9091321851 Ry
     enthalpy           new  =    -450.9192455506 Ry

     CASE: enthalpy          _new < enthalpy          _old

     new trust radius        =       0.1243990435 bohr
     new conv_thr            =            1.0E-10 Ry

     new unit-cell volume =    205.03357 a.u.^3 (    30.38284 Ang^3 )
     density =      5.77839 g/cm^3

CELL_PARAMETERS (alat=  5.55330037)
   1.116608968  -0.000009608  -0.000028782
  -0.000008355   0.960216708  -0.000008355
  -0.000028782  -0.000009608   1.116608968

ATOMIC_POSITIONS (crystal)
Fe               0.5011729900        0.5021479453        0.5011729900
Ti               0.0003671232        0.0006756933        0.0003671232
H                0.4999753386        0.4999611807        0.0012305481
H                0.0012305481        0.4999611807        0.4999753386



     Writing config-only to output data dir ./outputs/TiFe.save/ :
     XML data file     NEW-OLD atomic charge density approx. for the potential
     New effective cutoffs (rho, wfc): 1209.76  153.05

     Check: negative core charge=   -0.000005

     negative rho (up, down):  7.180E-04 0.000E+00

     total cpu time spent up to now is      430.2 secs

     per-process dynamical memory:   206.0 Mb

     Self-consistent Calculation

     iteration #  1     ecut=   140.00 Ry     beta= 0.70
     Davidson diagonalization with overlap
     ethr =  1.00E-06,  avg # of iterations =  9.9

     negative rho (up, down):  7.156E-04 0.000E+00

     total cpu time spent up to now is      451.3 secs

     total energy              =    -450.91893160 Ry
     estimated scf accuracy    <       0.00482024 Ry

     iteration #  2     ecut=   140.00 Ry     beta= 0.70
     Davidson diagonalization with overlap
     ethr =  1.61E-05,  avg # of iterations =  5.5

     negative rho (up, down):  7.514E-04 0.000E+00

     total cpu time spent up to now is      461.6 secs

     total energy              =    -450.89685690 Ry
     estimated scf accuracy    <       0.47437039 Ry

     iteration #  3     ecut=   140.00 Ry     beta= 0.70
     Davidson diagonalization with overlap
     ethr =  1.61E-05,  avg # of iterations =  5.0

     negative rho (up, down):  7.476E-04 0.000E+00

     total cpu time spent up to now is      471.4 secs

     total energy              =    -450.92214617 Ry
     estimated scf accuracy    <       0.00070118 Ry

     iteration #  4     ecut=   140.00 Ry     beta= 0.70
     Davidson diagonalization with overlap
     ethr =  2.34E-06,  avg # of iterations =  2.2

     negative rho (up, down):  7.524E-04 0.000E+00

     total cpu time spent up to now is      478.0 secs

     total energy              =    -450.92222883 Ry
     estimated scf accuracy    <       0.00004035 Ry

     iteration #  5     ecut=   140.00 Ry     beta= 0.70
     Davidson diagonalization with overlap
     ethr =  1.34E-07,  avg # of iterations =  4.3

     negative rho (up, down):  7.538E-04 0.000E+00

     total cpu time spent up to now is      487.1 secs

     total energy              =    -450.92224476 Ry
     estimated scf accuracy    <       0.00001612 Ry

     iteration #  6     ecut=   140.00 Ry     beta= 0.70
     Davidson diagonalization with overlap
     ethr =  5.37E-08,  avg # of iterations =  1.4

     negative rho (up, down):  7.549E-04 0.000E+00

     total cpu time spent up to now is      493.2 secs

     total energy              =    -450.92224588 Ry
     estimated scf accuracy    <       0.00000094 Ry

     iteration #  7     ecut=   140.00 Ry     beta= 0.70
     Davidson diagonalization with overlap
     ethr =  3.13E-09,  avg # of iterations =  4.1

     negative rho (up, down):  7.548E-04 0.000E+00

     total cpu time spent up to now is      501.5 secs

     total energy              =    -450.92224616 Ry
     estimated scf accuracy    <       0.00000005 Ry

     iteration #  8     ecut=   140.00 Ry     beta= 0.70
     Davidson diagonalization with overlap
     ethr =  1.62E-10,  avg # of iterations =  4.6

     negative rho (up, down):  7.548E-04 0.000E+00

     total cpu time spent up to now is      510.8 secs

     total energy              =    -450.92224619 Ry
     estimated scf accuracy    <          6.5E-10 Ry

     iteration #  9     ecut=   140.00 Ry     beta= 0.70
     Davidson diagonalization with overlap
     ethr =  2.16E-12,  avg # of iterations =  5.3

     negative rho (up, down):  7.548E-04 0.000E+00

     total cpu time spent up to now is      521.1 secs

     total energy              =    -450.92224619 Ry
     estimated scf accuracy    <          5.9E-10 Ry

     iteration # 10     ecut=   140.00 Ry     beta= 0.70
     Davidson diagonalization with overlap
     ethr =  1.97E-12,  avg # of iterations =  2.0

     negative rho (up, down):  7.548E-04 0.000E+00

     total cpu time spent up to now is      528.0 secs

     End of self-consistent calculation

     Number of k-points >= 100: set verbosity='high' to print the bands.

     the Fermi energy is    15.6918 ev

!    total energy              =    -450.92224619 Ry
     estimated scf accuracy    <          3.2E-12 Ry
     smearing contrib. (-TS)   =       0.00001540 Ry
     internal energy E=F+TS    =    -450.92226159 Ry

     The total energy is F=E-TS. E is the sum of the following terms:
     one-electron contribution =    -166.53227141 Ry
     hartree contribution      =      98.67249670 Ry
     xc contribution           =     -54.44763455 Ry
     ewald contribution        =    -252.46347819 Ry
     one-center paw contrib.   =     -76.15137414 Ry

     convergence has been achieved in  10 iterations

     negative rho (up, down):  7.548E-04 0.000E+00

     Forces acting on atoms (cartesian axes, Ry/au):

     atom    1 type  2   force =     0.00000379   -0.00075850    0.00000379
     atom    2 type  1   force =     0.00012793    0.00046432    0.00012793
     atom    3 type  3   force =     0.00012764    0.00014709   -0.00025936
     atom    4 type  3   force =    -0.00025936    0.00014709    0.00012764

     Total force =     0.001017     Total SCF correction =     0.000000


     Computing stress (Cartesian axis) and pressure


     negative rho (up, down):  7.548E-04 0.000E+00
          total   stress  (Ry/bohr**3)                   (kbar)     P=       26.74
   0.00020930   0.00000035   0.00000011           30.79        0.05        0.02
   0.00000035   0.00012675   0.00000035            0.05       18.65        0.05
   0.00000011   0.00000035   0.00020930            0.02        0.05       30.79

     Energy error            =      3.0E-03 Ry
     Gradient error          =      7.6E-04 Ry/Bohr
     Cell gradient error     =      3.1E+01 kbar

     number of scf cycles    =   4
     number of bfgs steps    =   3

     enthalpy           old  =    -450.9192455506 Ry
     enthalpy           new  =    -450.9222461877 Ry

     CASE: enthalpy          _new < enthalpy          _old

     new trust radius        =       0.0152099488 bohr
     new conv_thr            =            1.0E-10 Ry

     new unit-cell volume =    207.63272 a.u.^3 (    30.76800 Ang^3 )
     density =      5.70605 g/cm^3

CELL_PARAMETERS (alat=  5.55330037)
   1.120692038  -0.000002672  -0.000026388
  -0.000000279   0.965316517  -0.000000279
  -0.000026388  -0.000002672   1.120692038

ATOMIC_POSITIONS (crystal)
Fe               0.5011747255        0.5020618183        0.5011747255
Ti               0.0003833045        0.0007256466        0.0003833045
H                0.4999932435        0.4999792676        0.0011947266
H                0.0011947266        0.4999792676        0.4999932435



     Writing config-only to output data dir ./outputs/TiFe.save/ :
     XML data file     NEW-OLD atomic charge density approx. for the potential
     New effective cutoffs (rho, wfc): 1197.14  151.44

     Check: negative core charge=   -0.000005

     negative rho (up, down):  7.599E-04 0.000E+00

     total cpu time spent up to now is      531.5 secs

     per-process dynamical memory:   206.0 Mb

     Self-consistent Calculation

     iteration #  1     ecut=   140.00 Ry     beta= 0.70
     Davidson diagonalization with overlap
     ethr =  1.00E-06,  avg # of iterations =  5.6

     negative rho (up, down):  7.513E-04 0.000E+00

     total cpu time spent up to now is      543.7 secs

     total energy              =    -450.92246947 Ry
     estimated scf accuracy    <       0.00003259 Ry

     iteration #  2     ecut=   140.00 Ry     beta= 0.70
     Davidson diagonalization with overlap
     ethr =  1.09E-07,  avg # of iterations =  4.6

     negative rho (up, down):  7.494E-04 0.000E+00

     total cpu time spent up to now is      553.0 secs

     total energy              =    -450.92239132 Ry
     estimated scf accuracy    <       0.00117211 Ry

     iteration #  3     ecut=   140.00 Ry     beta= 0.70
     Davidson diagonalization with overlap
     ethr =  1.09E-07,  avg # of iterations =  4.4

     negative rho (up, down):  7.521E-04 0.000E+00

     total cpu time spent up to now is      561.3 secs

     total energy              =    -450.92247948 Ry
     estimated scf accuracy    <       0.00022095 Ry

     iteration #  4     ecut=   140.00 Ry     beta= 0.70
     Davidson diagonalization with overlap
     ethr =  1.09E-07,  avg # of iterations =  2.9

     negative rho (up, down):  7.517E-04 0.000E+00

     total cpu time spent up to now is      568.2 secs

     total energy              =    -450.92249051 Ry
     estimated scf accuracy    <       0.00000527 Ry

     iteration #  5     ecut=   140.00 Ry     beta= 0.70
     Davidson diagonalization with overlap
     ethr =  1.76E-08,  avg # of iterations =  2.7

     negative rho (up, down):  7.512E-04 0.000E+00

     total cpu time spent up to now is      574.8 secs

     total energy              =    -450.92249099 Ry
     estimated scf accuracy    <       0.00000022 Ry

     iteration #  6     ecut=   140.00 Ry     beta= 0.70
     Davidson diagonalization with overlap
     ethr =  7.27E-10,  avg # of iterations =  4.5

     negative rho (up, down):  7.511E-04 0.000E+00

     total cpu time spent up to now is      583.5 secs

     total energy              =    -450.92249109 Ry
     estimated scf accuracy    <          9.6E-09 Ry

     iteration #  7     ecut=   140.00 Ry     beta= 0.70
     Davidson diagonalization with overlap
     ethr =  3.19E-11,  avg # of iterations =  4.0

     negative rho (up, down):  7.511E-04 0.000E+00

     total cpu time spent up to now is      592.3 secs

     total energy              =    -450.92249109 Ry
     estimated scf accuracy    <          3.4E-09 Ry

     iteration #  8     ecut=   140.00 Ry     beta= 0.70
     Davidson diagonalization with overlap
     ethr =  1.12E-11,  avg # of iterations =  2.1

     negative rho (up, down):  7.511E-04 0.000E+00

     total cpu time spent up to now is      598.8 secs

     total energy              =    -450.92249109 Ry
     estimated scf accuracy    <          1.1E-10 Ry

     iteration #  9     ecut=   140.00 Ry     beta= 0.70
     Davidson diagonalization with overlap
     ethr =  3.79E-13,  avg # of iterations =  5.2

     negative rho (up, down):  7.511E-04 0.000E+00

     total cpu time spent up to now is      609.1 secs

     End of self-consistent calculation

     Number of k-points >= 100: set verbosity='high' to print the bands.

     the Fermi energy is    15.4636 ev

!    total energy              =    -450.92249109 Ry
     estimated scf accuracy    <          7.0E-11 Ry
     smearing contrib. (-TS)   =       0.00001545 Ry
     internal energy E=F+TS    =    -450.92250654 Ry

     The total energy is F=E-TS. E is the sum of the following terms:
     one-electron contribution =    -168.19203671 Ry
     hartree contribution      =      99.24361294 Ry
     xc contribution           =     -54.42208191 Ry
     ewald contribution        =    -251.40093554 Ry
     one-center paw contrib.   =     -76.15106532 Ry

     convergence has been achieved in   9 iterations

     negative rho (up, down):  7.511E-04 0.000E+00

     Forces acting on atoms (cartesian axes, Ry/au):

     atom    1 type  2   force =    -0.00002918   -0.00069472   -0.00002918
     atom    2 type  1   force =     0.00010819    0.00040298    0.00010819
     atom    3 type  3   force =     0.00012463    0.00014587   -0.00020365
     atom    4 type  3   force =    -0.00020365    0.00014587    0.00012463

     Total force =     0.000909     Total SCF correction =     0.000001


     Computing stress (Cartesian axis) and pressure


     negative rho (up, down):  7.511E-04 0.000E+00
          total   stress  (Ry/bohr**3)                   (kbar)     P=        3.21
   0.00004677   0.00000026   0.00000009            6.88        0.04        0.01
   0.00000026  -0.00002804   0.00000026            0.04       -4.12        0.04
   0.00000009   0.00000026   0.00004677            0.01        0.04        6.88

     Energy error            =      2.4E-04 Ry
     Gradient error          =      6.9E-04 Ry/Bohr
     Cell gradient error     =      6.9E+00 kbar

     number of scf cycles    =   5
     number of bfgs steps    =   4

     enthalpy           old  =    -450.9222461877 Ry
     enthalpy           new  =    -450.9224910891 Ry

     CASE: enthalpy          _new < enthalpy          _old

     new trust radius        =       0.0047823705 bohr
     new conv_thr            =            1.0E-10 Ry

     new unit-cell volume =    207.86957 a.u.^3 (    30.80309 Ang^3 )
     density =      5.69955 g/cm^3

CELL_PARAMETERS (alat=  5.55330037)
   1.122262585   0.000005632  -0.000023522
   0.000009382   0.963714650   0.000009382
  -0.000023522   0.000005632   1.122262585

ATOMIC_POSITIONS (crystal)
Fe               0.5011669700        0.5019161876        0.5011669700
Ti               0.0004100446        0.0008110643        0.0004100446
H                0.5000230941        0.5000093741        0.0011458913
H                0.0011458913        0.5000093741        0.5000230941



     Writing config-only to output data dir ./outputs/TiFe.save/ :
     XML data file     NEW-OLD atomic charge density approx. for the potential
     New effective cutoffs (rho, wfc): 1200.88  151.94

     Check: negative core charge=   -0.000005

     negative rho (up, down):  7.533E-04 0.000E+00

     total cpu time spent up to now is      612.5 secs

     per-process dynamical memory:   206.0 Mb

     Self-consistent Calculation

     iteration #  1     ecut=   140.00 Ry     beta= 0.70
     Davidson diagonalization with overlap
     ethr =  1.00E-06,  avg # of iterations =  4.0

     negative rho (up, down):  7.479E-04 0.000E+00

     total cpu time spent up to now is      622.7 secs

     total energy              =    -450.92248024 Ry
     estimated scf accuracy    <       0.00004173 Ry

     iteration #  2     ecut=   140.00 Ry     beta= 0.70
     Davidson diagonalization with overlap
     ethr =  1.39E-07,  avg # of iterations =  5.5

     negative rho (up, down):  7.517E-04 0.000E+00

     total cpu time spent up to now is      633.0 secs

     total energy              =    -450.92226006 Ry
     estimated scf accuracy    <       0.00524294 Ry

     iteration #  3     ecut=   140.00 Ry     beta= 0.70
     Davidson diagonalization with overlap
     ethr =  1.39E-07,  avg # of iterations =  4.7

     negative rho (up, down):  7.524E-04 0.000E+00

     total cpu time spent up to now is      641.9 secs

     total energy              =    -450.92251366 Ry
     estimated scf accuracy    <       0.00000143 Ry

     iteration #  4     ecut=   140.00 Ry     beta= 0.70
     Davidson diagonalization with overlap
     ethr =  4.75E-09,  avg # of iterations =  4.4

     negative rho (up, down):  7.521E-04 0.000E+00

     total cpu time spent up to now is      651.1 secs

     total energy              =    -450.92251436 Ry
     estimated scf accuracy    <       0.00000017 Ry

     iteration #  5     ecut=   140.00 Ry     beta= 0.70
     Davidson diagonalization with overlap
     ethr =  5.57E-10,  avg # of iterations =  4.4

     negative rho (up, down):  7.522E-04 0.000E+00

     total cpu time spent up to now is      659.9 secs

     total energy              =    -450.92251442 Ry
     estimated scf accuracy    <       0.00000002 Ry

     iteration #  6     ecut=   140.00 Ry     beta= 0.70
     Davidson diagonalization with overlap
     ethr =  7.22E-11,  avg # of iterations =  2.9

     negative rho (up, down):  7.522E-04 0.000E+00

     total cpu time spent up to now is      667.3 secs

     total energy              =    -450.92251442 Ry
     estimated scf accuracy    <          1.1E-09 Ry

     iteration #  7     ecut=   140.00 Ry     beta= 0.70
     Davidson diagonalization with overlap
     ethr =  3.81E-12,  avg # of iterations =  4.6

     negative rho (up, down):  7.522E-04 0.000E+00

     total cpu time spent up to now is      676.8 secs

     total energy              =    -450.92251442 Ry
     estimated scf accuracy    <          2.5E-10 Ry

     iteration #  8     ecut=   140.00 Ry     beta= 0.70
     Davidson diagonalization with overlap
     ethr =  8.41E-13,  avg # of iterations =  2.4

     negative rho (up, down):  7.522E-04 0.000E+00

     total cpu time spent up to now is      683.9 secs

     End of self-consistent calculation

     Number of k-points >= 100: set verbosity='high' to print the bands.

     the Fermi energy is    15.4361 ev

!    total energy              =    -450.92251442 Ry
     estimated scf accuracy    <          1.9E-12 Ry
     smearing contrib. (-TS)   =       0.00001425 Ry
     internal energy E=F+TS    =    -450.92252867 Ry

     The total energy is F=E-TS. E is the sum of the following terms:
     one-electron contribution =    -168.32719632 Ry
     hartree contribution      =      99.28875097 Ry
     xc contribution           =     -54.41900970 Ry
     ewald contribution        =    -251.31404400 Ry
     one-center paw contrib.   =     -76.15102962 Ry

     convergence has been achieved in   8 iterations

     negative rho (up, down):  7.522E-04 0.000E+00

     Forces acting on atoms (cartesian axes, Ry/au):

     atom    1 type  2   force =    -0.00007618   -0.00059957   -0.00007618
     atom    2 type  1   force =     0.00009642    0.00031801    0.00009642
     atom    3 type  3   force =     0.00012109    0.00014078   -0.00014133
     atom    4 type  3   force =    -0.00014133    0.00014078    0.00012109

     Total force =     0.000774     Total SCF correction =     0.000002


     Computing stress (Cartesian axis) and pressure


     negative rho (up, down):  7.522E-04 0.000E+00
          total   stress  (Ry/bohr**3)                   (kbar)     P=        0.22
   0.00000758   0.00000020   0.00000008            1.12        0.03        0.01
   0.00000020  -0.00001062   0.00000020            0.03       -1.56        0.03
   0.00000008   0.00000020   0.00000758            0.01        0.03        1.12

     Energy error            =      2.3E-05 Ry
     Gradient error          =      6.0E-04 Ry/Bohr
     Cell gradient error     =      1.6E+00 kbar

     number of scf cycles    =   6
     number of bfgs steps    =   5

     enthalpy           old  =    -450.9224910891 Ry
     enthalpy           new  =    -450.9225144213 Ry

     CASE: enthalpy          _new < enthalpy          _old

     new trust radius        =       0.0021458374 bohr
     new conv_thr            =            1.0E-10 Ry

     new unit-cell volume =    207.87022 a.u.^3 (    30.80319 Ang^3 )
     density =      5.69953 g/cm^3

CELL_PARAMETERS (alat=  5.55330037)
   1.122682104   0.000013246  -0.000020686
   0.000018248   0.962997544   0.000018248
  -0.000020686   0.000013246   1.122682104

ATOMIC_POSITIONS (crystal)
Fe               0.5011463987        0.5017717870        0.5011463987
Ti               0.0004372125        0.0008886097        0.0004372125
H                0.5000565698        0.5000428017        0.0011058189
H                0.0011058189        0.5000428017        0.5000565698



     Writing config-only to output data dir ./outputs/TiFe.save/ :
     XML data file     NEW-OLD atomic charge density approx. for the potential
     New effective cutoffs (rho, wfc): 1202.58  152.16

     Check: negative core charge=   -0.000005

     negative rho (up, down):  7.535E-04 0.000E+00

     total cpu time spent up to now is      687.3 secs

     per-process dynamical memory:   206.0 Mb

     Self-consistent Calculation

     iteration #  1     ecut=   140.00 Ry     beta= 0.70
     Davidson diagonalization with overlap
     ethr =  1.00E-06,  avg # of iterations =  3.0

     Threshold (ethr) on eigenvalues was too large:
     Diagonalizing with lowered threshold

     Davidson diagonalization with overlap
     ethr =  1.78E-08,  avg # of iterations =  4.1

     negative rho (up, down):  7.520E-04 0.000E+00

     total cpu time spent up to now is      704.7 secs

     total energy              =    -450.92251269 Ry
     estimated scf accuracy    <       0.00000525 Ry

     iteration #  2     ecut=   140.00 Ry     beta= 0.70
     Davidson diagonalization with overlap
     ethr =  1.75E-08,  avg # of iterations =  5.1

     negative rho (up, down):  7.533E-04 0.000E+00

     total cpu time spent up to now is      714.2 secs

     total energy              =    -450.92248468 Ry
     estimated scf accuracy    <       0.00064739 Ry

     iteration #  3     ecut=   140.00 Ry     beta= 0.70
     Davidson diagonalization with overlap
     ethr =  1.75E-08,  avg # of iterations =  4.7

     negative rho (up, down):  7.535E-04 0.000E+00

     total cpu time spent up to now is      723.0 secs

     total energy              =    -450.92251640 Ry
     estimated scf accuracy    <       0.00000029 Ry

     iteration #  4     ecut=   140.00 Ry     beta= 0.70
     Davidson diagonalization with overlap
     ethr =  9.63E-10,  avg # of iterations =  3.5

     negative rho (up, down):  7.534E-04 0.000E+00

     total cpu time spent up to now is      730.8 secs

     total energy              =    -450.92251647 Ry
     estimated scf accuracy    <       0.00000003 Ry

     iteration #  5     ecut=   140.00 Ry     beta= 0.70
     Davidson diagonalization with overlap
     ethr =  8.92E-11,  avg # of iterations =  4.5

     negative rho (up, down):  7.534E-04 0.000E+00

     total cpu time spent up to now is      740.0 secs

     total energy              =    -450.92251648 Ry
     estimated scf accuracy    <          2.8E-09 Ry

     iteration #  6     ecut=   140.00 Ry     beta= 0.70
     Davidson diagonalization with overlap
     ethr =  9.28E-12,  avg # of iterations =  3.3

     negative rho (up, down):  7.534E-04 0.000E+00

     total cpu time spent up to now is      747.8 secs

     total energy              =    -450.92251648 Ry
     estimated scf accuracy    <          1.4E-10 Ry

     iteration #  7     ecut=   140.00 Ry     beta= 0.70
     Davidson diagonalization with overlap
     ethr =  4.80E-13,  avg # of iterations =  4.6

     negative rho (up, down):  7.534E-04 0.000E+00

     total cpu time spent up to now is      757.1 secs

     End of self-consistent calculation

     Number of k-points >= 100: set verbosity='high' to print the bands.

     the Fermi energy is    15.4336 ev

!    total energy              =    -450.92251648 Ry
     estimated scf accuracy    <          2.9E-11 Ry
     smearing contrib. (-TS)   =       0.00001349 Ry
     internal energy E=F+TS    =    -450.92252998 Ry

     The total energy is F=E-TS. E is the sum of the following terms:
     one-electron contribution =    -168.32262726 Ry
     hartree contribution      =      99.28670706 Ry
     xc contribution           =     -54.41873811 Ry
     ewald contribution        =    -251.31684436 Ry
     one-center paw contrib.   =     -76.15102731 Ry

     convergence has been achieved in   7 iterations

     negative rho (up, down):  7.534E-04 0.000E+00

     Forces acting on atoms (cartesian axes, Ry/au):

     atom    1 type  2   force =    -0.00009672   -0.00050451   -0.00009672
     atom    2 type  1   force =     0.00008533    0.00024134    0.00008533
     atom    3 type  3   force =     0.00011673    0.00013158   -0.00010534
     atom    4 type  3   force =    -0.00010534    0.00013158    0.00011673

     Total force =     0.000656     Total SCF correction =     0.000005


     Computing stress (Cartesian axis) and pressure


     negative rho (up, down):  7.534E-04 0.000E+00
          total   stress  (Ry/bohr**3)                   (kbar)     P=       -0.07
  -0.00000091   0.00000014   0.00000006           -0.13        0.02        0.01
   0.00000014   0.00000034   0.00000014            0.02        0.05        0.02
   0.00000006   0.00000014  -0.00000091            0.01        0.02       -0.13

     Energy error            =      2.1E-06 Ry
     Gradient error          =      5.0E-04 Ry/Bohr
     Cell gradient error     =      1.3E-01 kbar

     bfgs converged in   7 scf cycles and   6 bfgs steps
     (criteria: energy <  1.0E-04 Ry, force <  1.0E-03 Ry/Bohr, cell <  5.0E-01 kbar)

     End of BFGS Geometry Optimization

     Final enthalpy           =    -450.9225164840 Ry

     File ./outputs/TiFe.bfgs deleted, as requested
Begin final coordinates
     new unit-cell volume =    207.87022 a.u.^3 (    30.80319 Ang^3 )
     density =      5.69953 g/cm^3

CELL_PARAMETERS (alat=  5.55330037)
   1.122682104   0.000013246  -0.000020686
   0.000018248   0.962997544   0.000018248
  -0.000020686   0.000013246   1.122682104

ATOMIC_POSITIONS (crystal)
Fe               0.5011463987        0.5017717870        0.5011463987
Ti               0.0004372125        0.0008886097        0.0004372125
H                0.5000565698        0.5000428017        0.0011058189
H                0.0011058189        0.5000428017        0.5000565698
End final coordinates



     Writing config-only to output data dir ./outputs/TiFe.save/ :
     XML data file
     Final scf calculation at the relaxed structure.
     The G-vectors are recalculated for the final unit cell
     Results may differ from those at the preceding step.

     Parallelization info
     --------------------
     sticks:   dense  smooth     PW     G-vecs:    dense   smooth      PW
     Min         371     185     53                16444     5804     891
     Max         372     187     54                16447     5805     894
     Sum        2975    1487    425               131565    46437    7133

     Using Slab Decomposition



     bravais-lattice index     =            0
     lattice parameter (alat)  =       5.5533  a.u.
     unit-cell volume          =     207.8702 (a.u.)^3
     number of atoms/cell      =            4
     number of atomic types    =            3
     number of electrons       =        30.00
     number of Kohn-Sham states=           19
     kinetic-energy cutoff     =     140.0000  Ry
     charge density cutoff     =    1120.0000  Ry
     scf convergence threshold =      1.0E-10
     mixing beta               =       0.7000
     number of iterations used =            8  plain     mixing
     press convergence thresh. =      5.0E-01
     Exchange-correlation= PBE
                           (   1   4   3   4   0   0   0)

     celldm(1)=   5.553300  celldm(2)=   0.000000  celldm(3)=   0.000000
     celldm(4)=   0.000000  celldm(5)=   0.000000  celldm(6)=   0.000000

     crystal axes: (cart. coord. in units of alat)
               a(1) = (   1.122682   0.000013  -0.000021 )  
               a(2) = (   0.000018   0.962998   0.000018 )  
               a(3) = (  -0.000021   0.000013   1.122682 )  

     reciprocal axes: (cart. coord. in units 2 pi/alat)
               b(1) = (  0.890724 -0.000017  0.000016 )  
               b(2) = ( -0.000012  1.038424 -0.000012 )  
               b(3) = (  0.000016 -0.000017  0.890724 )  


     PseudoPot. # 1 for Ti read from file:
     /vscmnt/antwerpen_storage_home/_user_antwerpen/211/vsc21140/pseudos/ti_pbe_v1.4.uspp.F.UPF
     MD5 check sum: 88a00a6731bd790ddea75d31a80cb452
     Pseudo is Ultrasoft + core correction, Zval = 12.0
     Generated by new atomic code, or converted to UPF format
     Using radial grid of  851 points,  6 beta functions with: 
                l(1) =   0
                l(2) =   0
                l(3) =   1
                l(4) =   1
                l(5) =   2
                l(6) =   2
     Q(r) pseudized with  6 coefficients,  rinner =    1.000   1.000   1.000
                                                       1.000   1.000

     PseudoPot. # 2 for Fe read from file:
     /vscmnt/antwerpen_storage_home/_user_antwerpen/211/vsc21140/pseudos/Fe.pbe-spn-kjpaw_psl.0.2.1.UPF
     MD5 check sum: e86618425769142926afa95317d90200
     Pseudo is Projector augmented-wave + core cor, Zval = 16.0
     Generated using "atomic" code by A. Dal Corso  v.5.0.99 svn rev. 10869
     Shape of augmentation charge: PSQ
     Using radial grid of 1191 points,  6 beta functions with: 
                l(1) =   0
                l(2) =   0
                l(3) =   1
                l(4) =   1
                l(5) =   2
                l(6) =   2
     Q(r) pseudized with 0 coefficients 


     PseudoPot. # 3 for H  read from file:
     /vscmnt/antwerpen_storage_home/_user_antwerpen/211/vsc21140/pseudos/H.pbe-rrkjus_psl.1.0.0.UPF
     MD5 check sum: f52b6d4d1c606e5624b1dc7b2218f220
     Pseudo is Ultrasoft, Zval =  1.0
     Generated using "atomic" code by A. Dal Corso  v.5.1
     Using radial grid of  929 points,  2 beta functions with: 
                l(1) =   0
                l(2) =   0
     Q(r) pseudized with 0 coefficients 


     atomic species   valence    mass     pseudopotential
     Ti               12.00    47.86700     Ti( 1.00)
     Fe               16.00    55.84500     Fe( 1.00)
     H                 1.00     1.00750     H ( 1.00)

      2 Sym. Ops. (no inversion) found



   Cartesian axes

     site n.     atom                  positions (alat units)
         1        Fe     tau(   1) = (   0.5626269   0.4832183   0.5626269  )
         2        Ti     tau(   2) = (   0.0004909   0.0008557   0.0004909  )
         3        H      tau(   3) = (   0.5614137   0.4815466   0.0012403  )
         4        H      tau(   4) = (   0.0012403   0.4815466   0.5614137  )

     number of k points=   366  Marzari-Vanderbilt smearing, width (Ry)=  0.0050

     Number of k-points >= 100: set verbosity='high' to print them.

     Dense  grid:   131565 G-vectors     FFT dimensions: (  72,  60,  72)

     Smooth grid:    46437 G-vectors     FFT dimensions: (  48,  45,  48)

     Estimated max dynamical RAM per process >     154.98 MB

     Estimated total dynamical RAM >       1.21 GB

     Check: negative core charge=   -0.000005

     Initial potential from superposition of free atoms

     starting charge      28.9995, renormalised to      30.0000

     negative rho (up, down):  1.443E-03 0.000E+00
     Starting wfcs are   25 randomized atomic wfcs
     Checking if some PAW data can be deallocated... 

     total cpu time spent up to now is      764.4 secs

     per-process dynamical memory:   217.8 Mb

     Self-consistent Calculation

     iteration #  1     ecut=   140.00 Ry     beta= 0.70
     Davidson diagonalization with overlap
     c_bands:  3 eigenvalues not converged
     c_bands:  2 eigenvalues not converged
     c_bands:  1 eigenvalues not converged
     c_bands:  1 eigenvalues not converged
     c_bands:  1 eigenvalues not converged
     c_bands:  1 eigenvalues not converged
     c_bands:  1 eigenvalues not converged
     c_bands:  1 eigenvalues not converged
     c_bands:  1 eigenvalues not converged
     c_bands:  1 eigenvalues not converged
     c_bands:  2 eigenvalues not converged
     c_bands:  1 eigenvalues not converged
     c_bands:  1 eigenvalues not converged
     c_bands:  1 eigenvalues not converged
     c_bands:  1 eigenvalues not converged
     c_bands:  1 eigenvalues not converged
     c_bands:  1 eigenvalues not converged
     c_bands:  1 eigenvalues not converged
     c_bands:  1 eigenvalues not converged
     c_bands:  2 eigenvalues not converged
     c_bands:  3 eigenvalues not converged
     c_bands:  1 eigenvalues not converged
     c_bands:  1 eigenvalues not converged
     c_bands:  1 eigenvalues not converged
     c_bands:  1 eigenvalues not converged
     c_bands:  1 eigenvalues not converged
     c_bands:  1 eigenvalues not converged
     c_bands:  1 eigenvalues not converged
     c_bands:  1 eigenvalues not converged
     c_bands:  1 eigenvalues not converged
     c_bands:  1 eigenvalues not converged
     c_bands:  1 eigenvalues not converged
     c_bands:  1 eigenvalues not converged
     c_bands:  1 eigenvalues not converged
     c_bands:  1 eigenvalues not converged
     c_bands:  1 eigenvalues not converged
     c_bands:  1 eigenvalues not converged
     c_bands:  1 eigenvalues not converged
     c_bands:  1 eigenvalues not converged
     c_bands:  1 eigenvalues not converged
     c_bands:  2 eigenvalues not converged
     c_bands:  2 eigenvalues not converged
     c_bands:  2 eigenvalues not converged
     c_bands:  1 eigenvalues not converged
     c_bands:  1 eigenvalues not converged
     c_bands:  1 eigenvalues not converged
     c_bands:  1 eigenvalues not converged
     c_bands:  1 eigenvalues not converged
     c_bands:  1 eigenvalues not converged
     c_bands:  1 eigenvalues not converged
     c_bands:  1 eigenvalues not converged
     c_bands:  1 eigenvalues not converged
     c_bands:  1 eigenvalues not converged
     c_bands:  1 eigenvalues not converged
     c_bands:  1 eigenvalues not converged
     c_bands:  1 eigenvalues not converged
     c_bands:  2 eigenvalues not converged
     c_bands:  1 eigenvalues not converged
     c_bands:  2 eigenvalues not converged
     c_bands:  2 eigenvalues not converged
     c_bands:  1 eigenvalues not converged
     c_bands:  1 eigenvalues not converged
     c_bands:  1 eigenvalues not converged
     c_bands:  1 eigenvalues not converged
     c_bands:  1 eigenvalues not converged
     c_bands:  1 eigenvalues not converged
     c_bands:  1 eigenvalues not converged
     c_bands:  1 eigenvalues not converged
     c_bands:  1 eigenvalues not converged
     c_bands:  1 eigenvalues not converged
     c_bands:  1 eigenvalues not converged
     c_bands:  1 eigenvalues not converged
     c_bands:  1 eigenvalues not converged
     c_bands:  1 eigenvalues not converged
     c_bands:  1 eigenvalues not converged
     c_bands:  1 eigenvalues not converged
     c_bands:  1 eigenvalues not converged
     c_bands:  1 eigenvalues not converged
     c_bands:  1 eigenvalues not converged
     c_bands:  1 eigenvalues not converged
     c_bands:  1 eigenvalues not converged
     c_bands:  1 eigenvalues not converged
     c_bands:  1 eigenvalues not converged
     c_bands:  1 eigenvalues not converged
     c_bands:  1 eigenvalues not converged
     c_bands:  1 eigenvalues not converged
     c_bands:  1 eigenvalues not converged
     c_bands:  1 eigenvalues not converged
     c_bands:  1 eigenvalues not converged
     c_bands:  1 eigenvalues not converged
     c_bands:  1 eigenvalues not converged
     c_bands:  1 eigenvalues not converged
     c_bands:  1 eigenvalues not converged
     c_bands:  1 eigenvalues not converged
     c_bands:  1 eigenvalues not converged
     c_bands:  1 eigenvalues not converged
     c_bands:  1 eigenvalues not converged
     c_bands:  1 eigenvalues not converged
     c_bands:  1 eigenvalues not converged
     c_bands:  1 eigenvalues not converged
     c_bands:  1 eigenvalues not converged
     c_bands:  1 eigenvalues not converged
     c_bands:  1 eigenvalues not converged
     c_bands:  1 eigenvalues not converged
     c_bands:  1 eigenvalues not converged
     c_bands:  2 eigenvalues not converged
     c_bands:  1 eigenvalues not converged
     c_bands:  3 eigenvalues not converged
     c_bands:  3 eigenvalues not converged
     c_bands:  3 eigenvalues not converged
     c_bands:  3 eigenvalues not converged
     ethr =  1.00E-06,  avg # of iterations = 17.6

     negative rho (up, down):  1.049E-04 0.000E+00

     total cpu time spent up to now is      800.1 secs

     total energy              =    -436.21331121 Ry
     estimated scf accuracy    <      18.43226336 Ry

     iteration #  2     ecut=   140.00 Ry     beta= 0.70
     Davidson diagonalization with overlap
     ethr =  1.00E-02,  avg # of iterations =  6.4

     negative rho (up, down):  2.827E-05 0.000E+00

     total cpu time spent up to now is      813.9 secs

     total energy              =    -449.87078052 Ry
     estimated scf accuracy    <      74.65801659 Ry

     iteration #  3     ecut=   140.00 Ry     beta= 0.70
     Davidson diagonalization with overlap
     ethr =  1.00E-02,  avg # of iterations =  3.1

     negative rho (up, down):  1.786E-04 0.000E+00

     total cpu time spent up to now is      822.8 secs

     total energy              =    -451.50549979 Ry
     estimated scf accuracy    <      17.65509641 Ry

     iteration #  4     ecut=   140.00 Ry     beta= 0.70
     Davidson diagonalization with overlap
     ethr =  1.00E-02,  avg # of iterations =  2.4

     negative rho (up, down):  2.429E-04 0.000E+00

     total cpu time spent up to now is      829.8 secs

     total energy              =    -451.64014535 Ry
     estimated scf accuracy    <       7.04506170 Ry

     iteration #  5     ecut=   140.00 Ry     beta= 0.70
     Davidson diagonalization with overlap
     ethr =  1.00E-02,  avg # of iterations =  1.1

     negative rho (up, down):  9.115E-04 0.000E+00

     total cpu time spent up to now is      835.7 secs

     total energy              =    -450.54688994 Ry
     estimated scf accuracy    <       5.76104301 Ry

     iteration #  6     ecut=   140.00 Ry     beta= 0.70
     Davidson diagonalization with overlap
     ethr =  1.00E-02,  avg # of iterations =  2.8

     negative rho (up, down):  9.262E-04 0.000E+00

     total cpu time spent up to now is      842.7 secs

     total energy              =    -450.88202506 Ry
     estimated scf accuracy    <       0.08362366 Ry

     iteration #  7     ecut=   140.00 Ry     beta= 0.70
     Davidson diagonalization with overlap
     ethr =  2.79E-04,  avg # of iterations =  6.2

     negative rho (up, down):  6.850E-04 0.000E+00

     total cpu time spent up to now is      853.4 secs

     total energy              =    -450.88844355 Ry
     estimated scf accuracy    <       0.10052469 Ry

     iteration #  8     ecut=   140.00 Ry     beta= 0.70
     Davidson diagonalization with overlap
     ethr =  2.79E-04,  avg # of iterations =  3.9

     negative rho (up, down):  7.357E-04 0.000E+00

     total cpu time spent up to now is      861.4 secs

     total energy              =    -450.94388224 Ry
     estimated scf accuracy    <       0.87266778 Ry

     iteration #  9     ecut=   140.00 Ry     beta= 0.70
     Davidson diagonalization with overlap
     ethr =  2.79E-04,  avg # of iterations =  1.0

     negative rho (up, down):  7.613E-04 0.000E+00

     total cpu time spent up to now is      867.2 secs

     total energy              =    -450.93364431 Ry
     estimated scf accuracy    <       0.45052409 Ry

     iteration # 10     ecut=   140.00 Ry     beta= 0.70
     Davidson diagonalization with overlap
     ethr =  2.79E-04,  avg # of iterations =  1.1

     negative rho (up, down):  7.649E-04 0.000E+00

     total cpu time spent up to now is      873.2 secs

     total energy              =    -450.93449434 Ry
     estimated scf accuracy    <       0.23980096 Ry

     iteration # 11     ecut=   140.00 Ry     beta= 0.70
     Davidson diagonalization with overlap
     ethr =  2.79E-04,  avg # of iterations =  1.0

     negative rho (up, down):  7.930E-04 0.000E+00

     total cpu time spent up to now is      879.0 secs

     total energy              =    -450.93084881 Ry
     estimated scf accuracy    <       0.21015868 Ry

     iteration # 12     ecut=   140.00 Ry     beta= 0.70
     Davidson diagonalization with overlap
     ethr =  2.79E-04,  avg # of iterations =  1.0

     negative rho (up, down):  9.184E-04 0.000E+00

     total cpu time spent up to now is      884.9 secs

     total energy              =    -450.90659146 Ry
     estimated scf accuracy    <       0.15642680 Ry

     iteration # 13     ecut=   140.00 Ry     beta= 0.70
     Davidson diagonalization with overlap
     ethr =  2.79E-04,  avg # of iterations =  2.0

     negative rho (up, down):  8.593E-04 0.000E+00

     total cpu time spent up to now is      891.3 secs

     total energy              =    -450.92020142 Ry
     estimated scf accuracy    <       0.03738362 Ry

     iteration # 14     ecut=   140.00 Ry     beta= 0.70
     Davidson diagonalization with overlap
     ethr =  1.25E-04,  avg # of iterations =  1.1

     negative rho (up, down):  8.459E-04 0.000E+00

     total cpu time spent up to now is      897.3 secs

     total energy              =    -450.92279113 Ry
     estimated scf accuracy    <       0.00014540 Ry

     iteration # 15     ecut=   140.00 Ry     beta= 0.70
     Davidson diagonalization with overlap
     ethr =  4.85E-07,  avg # of iterations =  5.9

     negative rho (up, down):  8.588E-04 0.000E+00

     total cpu time spent up to now is      908.0 secs

     total energy              =    -450.92272993 Ry
     estimated scf accuracy    <       0.00444282 Ry

     iteration # 16     ecut=   140.00 Ry     beta= 0.70
     Davidson diagonalization with overlap
     ethr =  4.85E-07,  avg # of iterations =  3.7

     negative rho (up, down):  8.644E-04 0.000E+00

     total cpu time spent up to now is      915.9 secs

     total energy              =    -450.92274906 Ry
     estimated scf accuracy    <       0.00074089 Ry

     iteration # 17     ecut=   140.00 Ry     beta= 0.70
     Davidson diagonalization with overlap
     ethr =  4.85E-07,  avg # of iterations =  2.0

     negative rho (up, down):  8.675E-04 0.000E+00

     total cpu time spent up to now is      922.3 secs

     total energy              =    -450.92276397 Ry
     estimated scf accuracy    <       0.00007676 Ry

     iteration # 18     ecut=   140.00 Ry     beta= 0.70
     Davidson diagonalization with overlap
     ethr =  2.56E-07,  avg # of iterations =  2.7

     negative rho (up, down):  8.672E-04 0.000E+00

     total cpu time spent up to now is      928.9 secs

     total energy              =    -450.92277162 Ry
     estimated scf accuracy    <       0.00000227 Ry

     iteration # 19     ecut=   140.00 Ry     beta= 0.70
     Davidson diagonalization with overlap
     ethr =  7.55E-09,  avg # of iterations =  4.8

     negative rho (up, down):  8.670E-04 0.000E+00

     total cpu time spent up to now is      937.8 secs

     total energy              =    -450.92277297 Ry
     estimated scf accuracy    <       0.00000054 Ry

     iteration # 20     ecut=   140.00 Ry     beta= 0.70
     Davidson diagonalization with overlap
     ethr =  1.81E-09,  avg # of iterations =  2.0

     negative rho (up, down):  8.670E-04 0.000E+00

     total cpu time spent up to now is      944.2 secs

     total energy              =    -450.92277303 Ry
     estimated scf accuracy    <       0.00000007 Ry

     iteration # 21     ecut=   140.00 Ry     beta= 0.70
     Davidson diagonalization with overlap
     ethr =  2.30E-10,  avg # of iterations =  3.1

     negative rho (up, down):  8.671E-04 0.000E+00

     total cpu time spent up to now is      951.2 secs

     total energy              =    -450.92277303 Ry
     estimated scf accuracy    <       0.00000006 Ry

     iteration # 22     ecut=   140.00 Ry     beta= 0.70
     Davidson diagonalization with overlap
     ethr =  2.06E-10,  avg # of iterations =  1.2

     negative rho (up, down):  8.670E-04 0.000E+00

     total cpu time spent up to now is      957.1 secs

     total energy              =    -450.92277300 Ry
     estimated scf accuracy    <       0.00000009 Ry

     iteration # 23     ecut=   140.00 Ry     beta= 0.70
     Davidson diagonalization with overlap
     ethr =  2.06E-10,  avg # of iterations =  3.0

     negative rho (up, down):  8.670E-04 0.000E+00

     total cpu time spent up to now is      964.5 secs

     total energy              =    -450.92277302 Ry
     estimated scf accuracy    <          3.1E-09 Ry

     iteration # 24     ecut=   140.00 Ry     beta= 0.70
     Davidson diagonalization with overlap
     ethr =  1.03E-11,  avg # of iterations =  4.6

     negative rho (up, down):  8.670E-04 0.000E+00

     total cpu time spent up to now is      972.8 secs

     total energy              =    -450.92277302 Ry
     estimated scf accuracy    <          5.3E-10 Ry

     iteration # 25     ecut=   140.00 Ry     beta= 0.70
     Davidson diagonalization with overlap
     ethr =  1.76E-12,  avg # of iterations =  2.9

     negative rho (up, down):  8.670E-04 0.000E+00

     total cpu time spent up to now is      980.3 secs

     End of self-consistent calculation

     Number of k-points >= 100: set verbosity='high' to print the bands.

     the Fermi energy is    15.4335 ev

!    total energy              =    -450.92277302 Ry
     estimated scf accuracy    <          3.7E-11 Ry
     smearing contrib. (-TS)   =       0.00001356 Ry
     internal energy E=F+TS    =    -450.92278658 Ry

     The total energy is F=E-TS. E is the sum of the following terms:
     one-electron contribution =    -168.32222698 Ry
     hartree contribution      =      99.28631006 Ry
     xc contribution           =     -54.41896179 Ry
     ewald contribution        =    -251.31684436 Ry
     one-center paw contrib.   =     -76.15106350 Ry

     convergence has been achieved in  25 iterations

     negative rho (up, down):  8.670E-04 0.000E+00

     Forces acting on atoms (cartesian axes, Ry/au):

     atom    1 type  2   force =    -0.00009483   -0.00050552   -0.00009483
     atom    2 type  1   force =     0.00008497    0.00024166    0.00008497
     atom    3 type  3   force =     0.00011597    0.00013193   -0.00010611
     atom    4 type  3   force =    -0.00010611    0.00013193    0.00011597

     Total force =     0.000656     Total SCF correction =     0.000002


     Computing stress (Cartesian axis) and pressure


     negative rho (up, down):  8.670E-04 0.000E+00
          total   stress  (Ry/bohr**3)                   (kbar)     P=        0.80
   0.00000696   0.00000014   0.00000006            1.02        0.02        0.01
   0.00000014   0.00000229   0.00000014            0.02        0.34        0.02
   0.00000006   0.00000014   0.00000696            0.01        0.02        1.02


     Writing all to output data dir ./outputs/TiFe.save/ :
     XML data file
     init_run     :      8.24s CPU      8.51s WALL (       2 calls)
     electrons    :    925.51s CPU    947.89s WALL (       8 calls)
     update_pot   :      0.64s CPU      0.74s WALL (       6 calls)
     forces       :      3.85s CPU      4.01s WALL (       8 calls)
     stress       :     18.96s CPU     19.39s WALL (       8 calls)

     Called by init_run:
     wfcinit      :      6.06s CPU      6.25s WALL (       2 calls)
     potinit      :      0.60s CPU      0.65s WALL (       2 calls)
     hinit0       :      1.16s CPU      1.17s WALL (       2 calls)

     Called by electrons:
     c_bands      :    794.14s CPU    810.00s WALL (     111 calls)
     sum_band     :    113.00s CPU    117.03s WALL (     111 calls)
     v_of_rho     :      1.35s CPU      1.46s WALL (     118 calls)
     newd         :      7.66s CPU      8.95s WALL (     118 calls)
     PAW_pot      :     10.87s CPU     12.13s WALL (     124 calls)
     mix_rho      :      0.17s CPU      0.19s WALL (     111 calls)

     Called by c_bands:
     init_us_2    :     18.85s CPU     19.48s WALL (   90036 calls)
     cegterg      :    764.49s CPU    778.89s WALL (   40626 calls)

     Called by *egterg:
     cdiaghg      :     68.56s CPU     69.76s WALL (  184658 calls)
     h_psi        :    590.28s CPU    602.02s WALL (  187952 calls)
     s_psi        :     16.85s CPU     17.19s WALL (  187952 calls)
     g_psi        :      3.30s CPU      3.35s WALL (  146594 calls)

     Called by h_psi:
     h_psi:calbec :     27.32s CPU     27.86s WALL (  187952 calls)
     vloc_psi     :    542.50s CPU    553.30s WALL (  187952 calls)
     add_vuspsi   :     17.70s CPU     18.09s WALL (  187952 calls)

     General routines
     calbec       :     42.50s CPU     43.36s WALL (  280550 calls)
     fft          :      1.61s CPU      1.71s WALL (    1725 calls)
     ffts         :      0.41s CPU      0.42s WALL (     229 calls)
     fftw         :    540.75s CPU    550.87s WALL ( 5335754 calls)
     interpolate  :      0.44s CPU      0.46s WALL (     118 calls)

     Parallel routines

     PWSCF        :    959.44s CPU    983.77s WALL


   This run was terminated on:  15:31:14   5Nov2025            

=------------------------------------------------------------------------------=
   JOB DONE.
=------------------------------------------------------------------------------=
