
     Program PWSCF v.7.4 starts on  5Nov2025 at 17:12: 4 

     This program is part of the open-source Quantum ESPRESSO suite
     for quantum simulation of materials; please cite
         "P. Giannozzi et al., J. Phys.:Condens. Matter 21 395502 (2009);
         "P. Giannozzi et al., J. Phys.:Condens. Matter 29 465901 (2017);
         "P. Giannozzi et al., J. Chem. Phys. 152 154105 (2020);
          URL http://www.quantum-espresso.org", 
     in publications or presentations arising from this work. More details at
     http://www.quantum-espresso.org/quote

     Parallel version (MPI & OpenMP), running on       8 processor cores
     Number of MPI processes:                 8
     Threads/MPI process:                     1

     MPI processes distributed on     1 nodes
     193585 MiB available memory on the printing compute node when the environment starts

     Reading input from TiFe_I1.in

     Current dimensions of program PWSCF are:
     Max number of different atomic species (ntypx) = 10
     Max number of k-points (npk) =  40000
     Max angular momentum in pseudopotentials (lmaxx) =  4
     file Fe.pbe-spn-kjpaw_psl.0.2.1.UPF: wavefunction(s)  3D renormalized

     IMPORTANT: XC functional enforced from input :
     Exchange-correlation= PBE
                           (   1   4   3   4   0   0   0)
     Any further DFT definition will be discarded
     Please, verify this is what you really want

     Message from routine setup:
     using ibrav=0 with symmetry is DISCOURAGED, use correct ibrav instead

     R & G space division:  proc/nbgrp/npool/nimage =       8
     Subspace diagonalization in iterative solution of the eigenvalue problem:
     a serial algorithm will be used


     Parallelization info
     --------------------
     sticks:   dense  smooth     PW     G-vecs:    dense   smooth      PW
     Min         347     172     50                13774     4875     752
     Max         349     174     51                13775     4876     755
     Sum        2785    1389    401               110195    39007    6031

     Using Slab Decomposition



     bravais-lattice index     =            0
     lattice parameter (alat)  =       5.5533  a.u.
     unit-cell volume          =     174.0962 (a.u.)^3
     number of atoms/cell      =            3
     number of atomic types    =            3
     number of electrons       =        29.00
     number of Kohn-Sham states=           19
     kinetic-energy cutoff     =     140.0000  Ry
     charge density cutoff     =    1120.0000  Ry
     scf convergence threshold =      1.0E-08
     mixing beta               =       0.7000
     number of iterations used =            8  plain     mixing
     energy convergence thresh.=      1.0E-04
     force convergence thresh. =      1.0E-03
     press convergence thresh. =      5.0E-01
     Exchange-correlation= PBE
                           (   1   4   3   4   0   0   0)
     nstep                     =           50


     celldm(1)=   5.553300  celldm(2)=   0.000000  celldm(3)=   0.000000
     celldm(4)=   0.000000  celldm(5)=   0.000000  celldm(6)=   0.000000

     crystal axes: (cart. coord. in units of alat)
               a(1) = (   1.005492   0.000000   0.000000 )  
               a(2) = (   0.000000   1.005492   0.000000 )  
               a(3) = (   0.000000   0.000000   1.005492 )  

     reciprocal axes: (cart. coord. in units 2 pi/alat)
               b(1) = (  0.994538  0.000000  0.000000 )  
               b(2) = (  0.000000  0.994538  0.000000 )  
               b(3) = (  0.000000  0.000000  0.994538 )  


     PseudoPot. # 1 for Ti read from file:
     /vscmnt/antwerpen_storage_home/_user_antwerpen/211/vsc21140/pseudos/ti_pbe_v1.4.uspp.F.UPF
     MD5 check sum: 88a00a6731bd790ddea75d31a80cb452
     Pseudo is Ultrasoft + core correction, Zval = 12.0
     Generated by new atomic code, or converted to UPF format
     Using radial grid of  851 points,  6 beta functions with: 
                l(1) =   0
                l(2) =   0
                l(3) =   1
                l(4) =   1
                l(5) =   2
                l(6) =   2
     Q(r) pseudized with  6 coefficients,  rinner =    1.000   1.000   1.000
                                                       1.000   1.000

     PseudoPot. # 2 for Fe read from file:
     /vscmnt/antwerpen_storage_home/_user_antwerpen/211/vsc21140/pseudos/Fe.pbe-spn-kjpaw_psl.0.2.1.UPF
     MD5 check sum: e86618425769142926afa95317d90200
     Pseudo is Projector augmented-wave + core cor, Zval = 16.0
     Generated using "atomic" code by A. Dal Corso  v.5.0.99 svn rev. 10869
     Shape of augmentation charge: PSQ
     Using radial grid of 1191 points,  6 beta functions with: 
                l(1) =   0
                l(2) =   0
                l(3) =   1
                l(4) =   1
                l(5) =   2
                l(6) =   2
     Q(r) pseudized with 0 coefficients 


     PseudoPot. # 3 for H  read from file:
     /vscmnt/antwerpen_storage_home/_user_antwerpen/211/vsc21140/pseudos/H.pbe-rrkjus_psl.1.0.0.UPF
     MD5 check sum: f52b6d4d1c606e5624b1dc7b2218f220
     Pseudo is Ultrasoft, Zval =  1.0
     Generated using "atomic" code by A. Dal Corso  v.5.1
     Using radial grid of  929 points,  2 beta functions with: 
                l(1) =   0
                l(2) =   0
     Q(r) pseudized with 0 coefficients 


     atomic species   valence    mass     pseudopotential
     Ti               12.00    47.86700     Ti( 1.00)
     Fe               16.00    55.84500     Fe( 1.00)
     H                 1.00     1.00750     H ( 1.00)

      6 Sym. Ops. (no inversion) found



   Cartesian axes

     site n.     atom                  positions (alat units)
         1        Fe     tau(   1) = (   0.5055071   0.5055071   0.5055071  )
         2        Ti     tau(   2) = (   0.0000000   0.0000000   0.0000000  )
         3        H      tau(   3) = (   0.2513730   0.2513730   0.2513730  )

     number of k points=   146  Marzari-Vanderbilt smearing, width (Ry)=  0.0050

     Number of k-points >= 100: set verbosity='high' to print them.

     Dense  grid:   110195 G-vectors     FFT dimensions: (  60,  60,  60)

     Smooth grid:    39007 G-vectors     FFT dimensions: (  45,  45,  45)

     Estimated max dynamical RAM per process >      93.09 MB

     Estimated total dynamical RAM >     744.76 MB

     Check: negative core charge=   -0.000005

     Initial potential from superposition of free atoms

     starting charge      27.9995, renormalised to      29.0000

     negative rho (up, down):  1.398E-03 0.000E+00
     Starting wfcs are   24 randomized atomic wfcs
     Checking if some PAW data can be deallocated... 

     total cpu time spent up to now is        3.0 secs

     per-process dynamical memory:   161.0 Mb

     Self-consistent Calculation

     iteration #  1     ecut=   140.00 Ry     beta= 0.70
     Davidson diagonalization with overlap
     ethr =  1.00E-02,  avg # of iterations =  2.2

     negative rho (up, down):  9.288E-05 0.000E+00

     total cpu time spent up to now is        6.2 secs

     total energy              =    -437.62647094 Ry
     estimated scf accuracy    <      15.34258758 Ry

     iteration #  2     ecut=   140.00 Ry     beta= 0.70
     Davidson diagonalization with overlap
     ethr =  1.00E-02,  avg # of iterations =  5.8

     negative rho (up, down):  5.345E-05 0.000E+00

     total cpu time spent up to now is       11.3 secs

     total energy              =    -449.08161557 Ry
     estimated scf accuracy    <      60.61748268 Ry

     iteration #  3     ecut=   140.00 Ry     beta= 0.70
     Davidson diagonalization with overlap
     ethr =  1.00E-02,  avg # of iterations =  3.1

     negative rho (up, down):  2.915E-04 0.000E+00

     total cpu time spent up to now is       15.0 secs

     total energy              =    -449.32379259 Ry
     estimated scf accuracy    <      14.70161611 Ry

     iteration #  4     ecut=   140.00 Ry     beta= 0.70
     Davidson diagonalization with overlap
     ethr =  1.00E-02,  avg # of iterations =  2.2

     negative rho (up, down):  3.024E-04 0.000E+00

     total cpu time spent up to now is       18.1 secs

     total energy              =    -449.89019200 Ry
     estimated scf accuracy    <       3.41904961 Ry

     iteration #  5     ecut=   140.00 Ry     beta= 0.70
     Davidson diagonalization with overlap
     ethr =  1.00E-02,  avg # of iterations =  1.0

     negative rho (up, down):  4.005E-04 0.000E+00

     total cpu time spent up to now is       20.6 secs

     total energy              =    -449.94409456 Ry
     estimated scf accuracy    <       3.31348217 Ry

     iteration #  6     ecut=   140.00 Ry     beta= 0.70
     Davidson diagonalization with overlap
     ethr =  1.00E-02,  avg # of iterations =  1.0

     negative rho (up, down):  1.512E-03 0.000E+00

     total cpu time spent up to now is       23.2 secs

     total energy              =    -448.63911786 Ry
     estimated scf accuracy    <       4.73619714 Ry

     iteration #  7     ecut=   140.00 Ry     beta= 0.70
     Davidson diagonalization with overlap
     ethr =  1.00E-02,  avg # of iterations =  2.6

     negative rho (up, down):  6.995E-04 0.000E+00

     total cpu time spent up to now is       26.2 secs

     total energy              =    -448.78671832 Ry
     estimated scf accuracy    <      11.79513590 Ry

     iteration #  8     ecut=   140.00 Ry     beta= 0.70
     Davidson diagonalization with overlap
     ethr =  1.00E-02,  avg # of iterations =  1.1

     negative rho (up, down):  7.065E-04 0.000E+00

     total cpu time spent up to now is       28.8 secs

     total energy              =    -449.49709847 Ry
     estimated scf accuracy    <       0.06070066 Ry

     iteration #  9     ecut=   140.00 Ry     beta= 0.70
     Davidson diagonalization with overlap
     ethr =  2.09E-04,  avg # of iterations =  2.9

     negative rho (up, down):  7.293E-04 0.000E+00

     total cpu time spent up to now is       31.8 secs

     total energy              =    -449.50001002 Ry
     estimated scf accuracy    <       0.04682436 Ry

     iteration # 10     ecut=   140.00 Ry     beta= 0.70
     Davidson diagonalization with overlap
     ethr =  1.61E-04,  avg # of iterations =  1.1

     negative rho (up, down):  5.568E-04 0.000E+00

     total cpu time spent up to now is       34.4 secs

     total energy              =    -449.49939305 Ry
     estimated scf accuracy    <       0.01707877 Ry

     iteration # 11     ecut=   140.00 Ry     beta= 0.70
     Davidson diagonalization with overlap
     ethr =  5.89E-05,  avg # of iterations =  2.2

     negative rho (up, down):  6.541E-04 0.000E+00

     total cpu time spent up to now is       37.3 secs

     total energy              =    -449.49453989 Ry
     estimated scf accuracy    <       0.12161539 Ry

     iteration # 12     ecut=   140.00 Ry     beta= 0.70
     Davidson diagonalization with overlap
     ethr =  5.89E-05,  avg # of iterations =  1.4

     negative rho (up, down):  7.015E-04 0.000E+00

     total cpu time spent up to now is       39.9 secs

     total energy              =    -449.49632932 Ry
     estimated scf accuracy    <       0.01432353 Ry

     iteration # 13     ecut=   140.00 Ry     beta= 0.70
     Davidson diagonalization with overlap
     ethr =  4.94E-05,  avg # of iterations =  1.2

     negative rho (up, down):  7.883E-04 0.000E+00

     total cpu time spent up to now is       42.4 secs

     total energy              =    -449.49785697 Ry
     estimated scf accuracy    <       0.00274896 Ry

     iteration # 14     ecut=   140.00 Ry     beta= 0.70
     Davidson diagonalization with overlap
     ethr =  9.48E-06,  avg # of iterations =  4.2

     negative rho (up, down):  7.975E-04 0.000E+00

     total cpu time spent up to now is       46.0 secs

     total energy              =    -449.49848789 Ry
     estimated scf accuracy    <       0.00764422 Ry

     iteration # 15     ecut=   140.00 Ry     beta= 0.70
     Davidson diagonalization with overlap
     ethr =  9.48E-06,  avg # of iterations =  1.1

     negative rho (up, down):  8.080E-04 0.000E+00

     total cpu time spent up to now is       48.5 secs

     total energy              =    -449.49802854 Ry
     estimated scf accuracy    <       0.00668789 Ry

     iteration # 16     ecut=   140.00 Ry     beta= 0.70
     Davidson diagonalization with overlap
     ethr =  9.48E-06,  avg # of iterations =  1.0

     negative rho (up, down):  7.830E-04 0.000E+00

     total cpu time spent up to now is       51.1 secs

     total energy              =    -449.49705154 Ry
     estimated scf accuracy    <       0.00474648 Ry

     iteration # 17     ecut=   140.00 Ry     beta= 0.70
     Davidson diagonalization with overlap
     ethr =  9.48E-06,  avg # of iterations =  1.7

     negative rho (up, down):  8.356E-04 0.000E+00

     total cpu time spent up to now is       53.7 secs

     total energy              =    -449.49678211 Ry
     estimated scf accuracy    <       0.00141400 Ry

     iteration # 18     ecut=   140.00 Ry     beta= 0.70
     Davidson diagonalization with overlap
     ethr =  4.88E-06,  avg # of iterations =  2.0

     negative rho (up, down):  8.492E-04 0.000E+00

     total cpu time spent up to now is       56.7 secs

     total energy              =    -449.49690436 Ry
     estimated scf accuracy    <       0.00031615 Ry

     iteration # 19     ecut=   140.00 Ry     beta= 0.70
     Davidson diagonalization with overlap
     ethr =  1.09E-06,  avg # of iterations =  2.7

     negative rho (up, down):  8.553E-04 0.000E+00

     total cpu time spent up to now is       59.6 secs

     total energy              =    -449.49694630 Ry
     estimated scf accuracy    <       0.00003038 Ry

     iteration # 20     ecut=   140.00 Ry     beta= 0.70
     Davidson diagonalization with overlap
     ethr =  1.05E-07,  avg # of iterations =  4.8

     negative rho (up, down):  8.550E-04 0.000E+00

     total cpu time spent up to now is       63.3 secs

     total energy              =    -449.49695727 Ry
     estimated scf accuracy    <       0.00000390 Ry

     iteration # 21     ecut=   140.00 Ry     beta= 0.70
     Davidson diagonalization with overlap
     ethr =  1.34E-08,  avg # of iterations =  2.4

     negative rho (up, down):  8.547E-04 0.000E+00

     total cpu time spent up to now is       66.4 secs

     total energy              =    -449.49695767 Ry
     estimated scf accuracy    <       0.00000070 Ry

     iteration # 22     ecut=   140.00 Ry     beta= 0.70
     Davidson diagonalization with overlap
     ethr =  2.40E-09,  avg # of iterations =  2.6

     negative rho (up, down):  8.542E-04 0.000E+00

     total cpu time spent up to now is       69.5 secs

     total energy              =    -449.49695775 Ry
     estimated scf accuracy    <       0.00000007 Ry

     iteration # 23     ecut=   140.00 Ry     beta= 0.70
     Davidson diagonalization with overlap
     ethr =  2.37E-10,  avg # of iterations =  4.2

     negative rho (up, down):  8.544E-04 0.000E+00

     total cpu time spent up to now is       73.2 secs

     End of self-consistent calculation

     Number of k-points >= 100: set verbosity='high' to print the bands.

     the Fermi energy is    18.0520 ev

!    total energy              =    -449.49695777 Ry
     estimated scf accuracy    <          8.5E-09 Ry
     smearing contrib. (-TS)   =      -0.00001781 Ry
     internal energy E=F+TS    =    -449.49693996 Ry

     The total energy is F=E-TS. E is the sum of the following terms:
     one-electron contribution =    -151.02738737 Ry
     hartree contribution      =      92.68246862 Ry
     xc contribution           =     -53.96992401 Ry
     ewald contribution        =    -261.02681397 Ry
     one-center paw contrib.   =     -76.15528324 Ry

     convergence has been achieved in  23 iterations

     negative rho (up, down):  8.544E-04 0.000E+00

     Forces acting on atoms (cartesian axes, Ry/au):

     atom    1 type  2   force =     0.10469493    0.10469493    0.10469493
     atom    2 type  1   force =    -0.21770137   -0.21770137   -0.21770137
     atom    3 type  3   force =     0.11300643    0.11300643    0.11300643

     Total force =     0.461927     Total SCF correction =     0.000026


     Computing stress (Cartesian axis) and pressure


     negative rho (up, down):  8.544E-04 0.000E+00
          total   stress  (Ry/bohr**3)                   (kbar)     P=      528.93
   0.00359558   0.00269161   0.00269161          528.93      395.95      395.95
   0.00269161   0.00359558   0.00269161          395.95      528.93      395.95
   0.00269161   0.00269161   0.00359558          395.95      395.95      528.93


     BFGS Geometry Optimization
     Energy error            =      3.3E-01 Ry
     Gradient error          =      2.2E-01 Ry/Bohr
     Cell gradient error     =      5.3E+02 kbar

     number of scf cycles    =   1
     number of bfgs steps    =   0

     enthalpy           new  =    -449.4969577698 Ry

     new trust radius        =       0.3770698255 bohr
     new conv_thr            =       0.0000000100 Ry

     new unit-cell volume =    222.91969 a.u.^3 (    33.03329 Ang^3 )
     density =      5.26411 g/cm^3

CELL_PARAMETERS (alat=  5.55330037)
   1.095875151   0.067659700   0.067659700
   0.067659700   1.095875151   0.067659700
   0.067659700   0.067659700   1.095875151

ATOMIC_POSITIONS (crystal)
Fe               0.5214957673        0.5214957673        0.5214957673
Ti              -0.0389880369       -0.0389880369       -0.0389880369
H                0.2702382696        0.2702382696        0.2702382696



     Writing config-only to output data dir ./outputs/TiFe.save/ :
     XML data file     NEW-OLD atomic charge density approx. for the potential
     New effective cutoffs (rho, wfc): 1069.90  133.86

     Check: negative core charge=   -0.000007

     negative rho (up, down):  6.748E-04 0.000E+00

     total cpu time spent up to now is       75.4 secs

     per-process dynamical memory:   167.0 Mb

     Self-consistent Calculation

     iteration #  1     ecut=   140.00 Ry     beta= 0.70
     Davidson diagonalization with overlap
     c_bands:  3 eigenvalues not converged
     c_bands:  4 eigenvalues not converged
     c_bands:  5 eigenvalues not converged
     c_bands:  3 eigenvalues not converged
     c_bands:  5 eigenvalues not converged
     c_bands:  5 eigenvalues not converged
     c_bands:  3 eigenvalues not converged
     c_bands:  3 eigenvalues not converged
     c_bands:  3 eigenvalues not converged
     c_bands:  3 eigenvalues not converged
     c_bands:  3 eigenvalues not converged
     c_bands:  4 eigenvalues not converged
     c_bands:  3 eigenvalues not converged
     c_bands:  3 eigenvalues not converged
     c_bands:  3 eigenvalues not converged
     c_bands:  3 eigenvalues not converged
     c_bands:  4 eigenvalues not converged
     c_bands:  2 eigenvalues not converged
     c_bands:  2 eigenvalues not converged
     c_bands:  3 eigenvalues not converged
     c_bands:  1 eigenvalues not converged
     c_bands:  2 eigenvalues not converged
     c_bands:  2 eigenvalues not converged
     c_bands:  2 eigenvalues not converged
     ethr =  1.00E-06,  avg # of iterations = 23.7

     negative rho (up, down):  9.679E-04 0.000E+00

     total cpu time spent up to now is       95.8 secs

     total energy              =    -449.21024493 Ry
     estimated scf accuracy    <       0.63294042 Ry

     iteration #  2     ecut=   140.00 Ry     beta= 0.70
     Davidson diagonalization with overlap
     ethr =  2.18E-03,  avg # of iterations =  5.6

     negative rho (up, down):  5.654E-04 0.000E+00

     total cpu time spent up to now is      100.1 secs

     total energy              =    -448.23420921 Ry
     estimated scf accuracy    <      39.54807787 Ry

     iteration #  3     ecut=   140.00 Ry     beta= 0.70
     Davidson diagonalization with overlap
     ethr =  2.18E-03,  avg # of iterations =  5.3

     negative rho (up, down):  7.754E-04 0.000E+00

     total cpu time spent up to now is      104.4 secs

     total energy              =    -449.56042863 Ry
     estimated scf accuracy    <       1.02186008 Ry

     iteration #  4     ecut=   140.00 Ry     beta= 0.70
     Davidson diagonalization with overlap
     ethr =  2.18E-03,  avg # of iterations =  2.3

     negative rho (up, down):  7.963E-04 0.000E+00

     total cpu time spent up to now is      107.3 secs

     total energy              =    -449.65072679 Ry
     estimated scf accuracy    <       0.04268644 Ry

     iteration #  5     ecut=   140.00 Ry     beta= 0.70
     Davidson diagonalization with overlap
     ethr =  1.47E-04,  avg # of iterations =  3.1

     negative rho (up, down):  8.275E-04 0.000E+00

     total cpu time spent up to now is      110.5 secs

     total energy              =    -449.66018203 Ry
     estimated scf accuracy    <       0.01742684 Ry

     iteration #  6     ecut=   140.00 Ry     beta= 0.70
     Davidson diagonalization with overlap
     ethr =  6.01E-05,  avg # of iterations =  2.3

     negative rho (up, down):  8.232E-04 0.000E+00

     total cpu time spent up to now is      113.3 secs

     total energy              =    -449.66203968 Ry
     estimated scf accuracy    <       0.00100029 Ry

     iteration #  7     ecut=   140.00 Ry     beta= 0.70
     Davidson diagonalization with overlap
     ethr =  3.45E-06,  avg # of iterations =  6.0

     negative rho (up, down):  8.185E-04 0.000E+00

     total cpu time spent up to now is      117.9 secs

     total energy              =    -449.66270809 Ry
     estimated scf accuracy    <       0.00014977 Ry

     iteration #  8     ecut=   140.00 Ry     beta= 0.70
     Davidson diagonalization with overlap
     ethr =  5.16E-07,  avg # of iterations =  3.0

     negative rho (up, down):  8.227E-04 0.000E+00

     total cpu time spent up to now is      121.2 secs

     total energy              =    -449.66273737 Ry
     estimated scf accuracy    <       0.00016566 Ry

     iteration #  9     ecut=   140.00 Ry     beta= 0.70
     Davidson diagonalization with overlap
     ethr =  5.16E-07,  avg # of iterations =  2.0

     negative rho (up, down):  8.230E-04 0.000E+00

     total cpu time spent up to now is      124.1 secs

     total energy              =    -449.66275240 Ry
     estimated scf accuracy    <       0.00000119 Ry

     iteration # 10     ecut=   140.00 Ry     beta= 0.70
     Davidson diagonalization with overlap
     ethr =  4.09E-09,  avg # of iterations =  5.4

     negative rho (up, down):  8.226E-04 0.000E+00

     total cpu time spent up to now is      128.8 secs

     total energy              =    -449.66275353 Ry
     estimated scf accuracy    <       0.00000166 Ry

     iteration # 11     ecut=   140.00 Ry     beta= 0.70
     Davidson diagonalization with overlap
     ethr =  4.09E-09,  avg # of iterations =  2.1

     negative rho (up, down):  8.225E-04 0.000E+00

     total cpu time spent up to now is      131.9 secs

     total energy              =    -449.66275382 Ry
     estimated scf accuracy    <       0.00000005 Ry

     iteration # 12     ecut=   140.00 Ry     beta= 0.70
     Davidson diagonalization with overlap
     ethr =  1.88E-10,  avg # of iterations =  5.0

     negative rho (up, down):  8.225E-04 0.000E+00

     total cpu time spent up to now is      136.2 secs

     total energy              =    -449.66275385 Ry
     estimated scf accuracy    <       0.00000002 Ry

     iteration # 13     ecut=   140.00 Ry     beta= 0.70
     Davidson diagonalization with overlap
     ethr =  6.76E-11,  avg # of iterations =  1.2

     negative rho (up, down):  8.225E-04 0.000E+00

     total cpu time spent up to now is      138.9 secs

     total energy              =    -449.66275385 Ry
     estimated scf accuracy    <       0.00000001 Ry

     iteration # 14     ecut=   140.00 Ry     beta= 0.70
     Davidson diagonalization with overlap
     ethr =  5.03E-11,  avg # of iterations =  2.0

     negative rho (up, down):  8.225E-04 0.000E+00

     total cpu time spent up to now is      141.9 secs

     End of self-consistent calculation

     Number of k-points >= 100: set verbosity='high' to print the bands.

     the Fermi energy is    13.7436 ev

!    total energy              =    -449.66275385 Ry
     estimated scf accuracy    <          6.5E-11 Ry
     smearing contrib. (-TS)   =      -0.00004037 Ry
     internal energy E=F+TS    =    -449.66271348 Ry

     The total energy is F=E-TS. E is the sum of the following terms:
     one-electron contribution =    -183.64926352 Ry
     hartree contribution      =     104.27602649 Ry
     xc contribution           =     -53.43052051 Ry
     ewald contribution        =    -240.71224882 Ry
     one-center paw contrib.   =     -76.14670713 Ry

     convergence has been achieved in  14 iterations

     negative rho (up, down):  8.225E-04 0.000E+00

     Forces acting on atoms (cartesian axes, Ry/au):

     atom    1 type  2   force =     0.00736177    0.00736177    0.00736177
     atom    2 type  1   force =    -0.00155916   -0.00155916   -0.00155916
     atom    3 type  3   force =    -0.00580261   -0.00580261   -0.00580261

     Total force =     0.016459     Total SCF correction =     0.000003


     Computing stress (Cartesian axis) and pressure


     negative rho (up, down):  8.225E-04 0.000E+00
          total   stress  (Ry/bohr**3)                   (kbar)     P=     -149.13
  -0.00101378   0.00008246   0.00008246         -149.13       12.13       12.13
   0.00008246  -0.00101378   0.00008246           12.13     -149.13       12.13
   0.00008246   0.00008246  -0.00101378           12.13       12.13     -149.13

     Energy error            =      1.7E-01 Ry
     Gradient error          =      7.4E-03 Ry/Bohr
     Cell gradient error     =      1.5E+02 kbar

     number of scf cycles    =   2
     number of bfgs steps    =   1

     enthalpy           old  =    -449.4969577698 Ry
     enthalpy           new  =    -449.6627538502 Ry

     CASE: enthalpy          _new < enthalpy          _old

     new trust radius        =       0.0775077151 bohr
     new conv_thr            =       0.0000000007 Ry

     new unit-cell volume =    206.93612 a.u.^3 (    30.66477 Ang^3 )
     density =      5.67070 g/cm^3

CELL_PARAMETERS (alat=  5.55330037)
   1.069905326   0.073157783   0.073157783
   0.073157783   1.069905326   0.073157783
   0.073157783   0.073157783   1.069905326

ATOMIC_POSITIONS (crystal)
Fe               0.5234728410        0.5234728410        0.5234728410
Ti              -0.0402989283       -0.0402989283       -0.0402989283
H                0.2695720873        0.2695720873        0.2695720873



     Writing config-only to output data dir ./outputs/TiFe.save/ :
     XML data file     NEW-OLD atomic charge density approx. for the potential
     New effective cutoffs (rho, wfc): 1138.48  142.44

     Check: negative core charge=   -0.000006

     negative rho (up, down):  8.127E-04 0.000E+00

     total cpu time spent up to now is      144.1 secs

     per-process dynamical memory:   167.0 Mb

     Self-consistent Calculation

     iteration #  1     ecut=   140.00 Ry     beta= 0.70
     Davidson diagonalization with overlap
     ethr =  1.00E-06,  avg # of iterations = 11.3

     negative rho (up, down):  8.382E-04 0.000E+00

     total cpu time spent up to now is      153.7 secs

     total energy              =    -449.67538845 Ry
     estimated scf accuracy    <       0.00065824 Ry

     iteration #  2     ecut=   140.00 Ry     beta= 0.70
     Davidson diagonalization with overlap
     ethr =  2.27E-06,  avg # of iterations =  3.0

     negative rho (up, down):  8.424E-04 0.000E+00

     total cpu time spent up to now is      157.1 secs

     total energy              =    -449.67450591 Ry
     estimated scf accuracy    <       0.00793282 Ry

     iteration #  3     ecut=   140.00 Ry     beta= 0.70
     Davidson diagonalization with overlap
     ethr =  2.27E-06,  avg # of iterations =  3.9

     negative rho (up, down):  8.357E-04 0.000E+00

     total cpu time spent up to now is      160.7 secs

     total energy              =    -449.67502298 Ry
     estimated scf accuracy    <       0.01809766 Ry

     iteration #  4     ecut=   140.00 Ry     beta= 0.70
     Davidson diagonalization with overlap
     ethr =  2.27E-06,  avg # of iterations =  2.9

     negative rho (up, down):  8.389E-04 0.000E+00

     total cpu time spent up to now is      163.8 secs

     total energy              =    -449.67565908 Ry
     estimated scf accuracy    <       0.00010506 Ry

     iteration #  5     ecut=   140.00 Ry     beta= 0.70
     Davidson diagonalization with overlap
     ethr =  3.62E-07,  avg # of iterations =  2.2

     negative rho (up, down):  8.401E-04 0.000E+00

     total cpu time spent up to now is      166.8 secs

     total energy              =    -449.67567200 Ry
     estimated scf accuracy    <       0.00000838 Ry

     iteration #  6     ecut=   140.00 Ry     beta= 0.70
     Davidson diagonalization with overlap
     ethr =  2.89E-08,  avg # of iterations =  3.3

     negative rho (up, down):  8.403E-04 0.000E+00

     total cpu time spent up to now is      170.0 secs

     total energy              =    -449.67567364 Ry
     estimated scf accuracy    <       0.00000005 Ry

     iteration #  7     ecut=   140.00 Ry     beta= 0.70
     Davidson diagonalization with overlap
     ethr =  1.63E-10,  avg # of iterations =  7.1

     negative rho (up, down):  8.403E-04 0.000E+00

     total cpu time spent up to now is      175.9 secs

     total energy              =    -449.67567385 Ry
     estimated scf accuracy    <       0.00000002 Ry

     iteration #  8     ecut=   140.00 Ry     beta= 0.70
     Davidson diagonalization with overlap
     ethr =  5.55E-11,  avg # of iterations =  2.0

     negative rho (up, down):  8.403E-04 0.000E+00

     total cpu time spent up to now is      178.9 secs

     total energy              =    -449.67567386 Ry
     estimated scf accuracy    <          3.7E-09 Ry

     iteration #  9     ecut=   140.00 Ry     beta= 0.70
     Davidson diagonalization with overlap
     ethr =  1.27E-11,  avg # of iterations =  2.1

     negative rho (up, down):  8.403E-04 0.000E+00

     total cpu time spent up to now is      181.8 secs

     End of self-consistent calculation

     Number of k-points >= 100: set verbosity='high' to print the bands.

     the Fermi energy is    15.0679 ev

!    total energy              =    -449.67567386 Ry
     estimated scf accuracy    <          1.4E-10 Ry
     smearing contrib. (-TS)   =       0.00002438 Ry
     internal energy E=F+TS    =    -449.67569824 Ry

     The total energy is F=E-TS. E is the sum of the following terms:
     one-electron contribution =    -174.36853418 Ry
     hartree contribution      =     101.06475137 Ry
     xc contribution           =     -53.55497777 Ry
     ewald contribution        =    -246.66925702 Ry
     one-center paw contrib.   =     -76.14768063 Ry

     convergence has been achieved in   9 iterations

     negative rho (up, down):  8.403E-04 0.000E+00

     Forces acting on atoms (cartesian axes, Ry/au):

     atom    1 type  2   force =     0.00593412    0.00593412    0.00593412
     atom    2 type  1   force =    -0.00008749   -0.00008749   -0.00008749
     atom    3 type  3   force =    -0.00584663   -0.00584663   -0.00584663

     Total force =     0.014430     Total SCF correction =     0.000015


     Computing stress (Cartesian axis) and pressure


     negative rho (up, down):  8.403E-04 0.000E+00
          total   stress  (Ry/bohr**3)                   (kbar)     P=      -65.29
  -0.00044385   0.00005807   0.00005807          -65.29        8.54        8.54
   0.00005807  -0.00044385   0.00005807            8.54      -65.29        8.54
   0.00005807   0.00005807  -0.00044385            8.54        8.54      -65.29

     Energy error            =      1.3E-02 Ry
     Gradient error          =      5.9E-03 Ry/Bohr
     Cell gradient error     =      6.5E+01 kbar

     number of scf cycles    =   3
     number of bfgs steps    =   2

     enthalpy           old  =    -449.6627538502 Ry
     enthalpy           new  =    -449.6756738599 Ry

     CASE: enthalpy          _new < enthalpy          _old

     new trust radius        =       0.0606490092 bohr
     new conv_thr            =       0.0000000006 Ry

     new unit-cell volume =    195.15343 a.u.^3 (    28.91875 Ang^3 )
     density =      6.01308 g/cm^3

CELL_PARAMETERS (alat=  5.55330037)
   1.050113162   0.078569163   0.078569163
   0.078569163   1.050113162   0.078569163
   0.078569163   0.078569163   1.050113162

ATOMIC_POSITIONS (crystal)
Fe               0.5260837231        0.5260837231        0.5260837231
Ti              -0.0411220280       -0.0411220280       -0.0411220280
H                0.2677843049        0.2677843049        0.2677843049



     Writing config-only to output data dir ./outputs/TiFe.save/ :
     XML data file     NEW-OLD atomic charge density approx. for the potential
     New effective cutoffs (rho, wfc): 1198.27  149.93

     Check: negative core charge=   -0.000005

     negative rho (up, down):  8.026E-04 0.000E+00

     total cpu time spent up to now is      184.0 secs

     per-process dynamical memory:   167.0 Mb

     Self-consistent Calculation

     iteration #  1     ecut=   140.00 Ry     beta= 0.70
     Davidson diagonalization with overlap
     ethr =  1.00E-06,  avg # of iterations = 11.4

     negative rho (up, down):  8.098E-04 0.000E+00

     total cpu time spent up to now is      193.5 secs

     total energy              =    -449.67755181 Ry
     estimated scf accuracy    <       0.00108807 Ry

     iteration #  2     ecut=   140.00 Ry     beta= 0.70
     Davidson diagonalization with overlap
     ethr =  3.75E-06,  avg # of iterations =  4.5

     negative rho (up, down):  8.190E-04 0.000E+00

     total cpu time spent up to now is      197.4 secs

     total energy              =    -449.67290700 Ry
     estimated scf accuracy    <       0.10023598 Ry

     iteration #  3     ecut=   140.00 Ry     beta= 0.70
     Davidson diagonalization with overlap
     ethr =  3.75E-06,  avg # of iterations =  4.4

     negative rho (up, down):  8.184E-04 0.000E+00

     total cpu time spent up to now is      201.1 secs

     total energy              =    -449.67812014 Ry
     estimated scf accuracy    <       0.00113762 Ry

     iteration #  4     ecut=   140.00 Ry     beta= 0.70
     Davidson diagonalization with overlap
     ethr =  3.75E-06,  avg # of iterations =  1.0

     negative rho (up, down):  8.207E-04 0.000E+00

     total cpu time spent up to now is      203.7 secs

     total energy              =    -449.67817406 Ry
     estimated scf accuracy    <       0.00001676 Ry

     iteration #  5     ecut=   140.00 Ry     beta= 0.70
     Davidson diagonalization with overlap
     ethr =  5.78E-08,  avg # of iterations =  3.5

     negative rho (up, down):  8.209E-04 0.000E+00

     total cpu time spent up to now is      207.0 secs

     total energy              =    -449.67817982 Ry
     estimated scf accuracy    <       0.00000167 Ry

     iteration #  6     ecut=   140.00 Ry     beta= 0.70
     Davidson diagonalization with overlap
     ethr =  5.75E-09,  avg # of iterations =  4.0

     negative rho (up, down):  8.210E-04 0.000E+00

     total cpu time spent up to now is      210.5 secs

     total energy              =    -449.67818046 Ry
     estimated scf accuracy    <       0.00000008 Ry

     iteration #  7     ecut=   140.00 Ry     beta= 0.70
     Davidson diagonalization with overlap
     ethr =  2.84E-10,  avg # of iterations =  3.6

     negative rho (up, down):  8.210E-04 0.000E+00

     total cpu time spent up to now is      214.0 secs

     total energy              =    -449.67818050 Ry
     estimated scf accuracy    <          4.0E-09 Ry

     iteration #  8     ecut=   140.00 Ry     beta= 0.70
     Davidson diagonalization with overlap
     ethr =  1.38E-11,  avg # of iterations =  4.7

     negative rho (up, down):  8.210E-04 0.000E+00

     total cpu time spent up to now is      217.9 secs

     End of self-consistent calculation

     Number of k-points >= 100: set verbosity='high' to print the bands.

     the Fermi energy is    16.1687 ev

!    total energy              =    -449.67818050 Ry
     estimated scf accuracy    <          3.0E-10 Ry
     smearing contrib. (-TS)   =       0.00004198 Ry
     internal energy E=F+TS    =    -449.67822248 Ry

     The total energy is F=E-TS. E is the sum of the following terms:
     one-electron contribution =    -167.00169837 Ry
     hartree contribution      =      98.58099273 Ry
     xc contribution           =     -53.66329398 Ry
     ewald contribution        =    -251.44597782 Ry
     one-center paw contrib.   =     -76.14824504 Ry

     convergence has been achieved in   8 iterations

     negative rho (up, down):  8.210E-04 0.000E+00

     Forces acting on atoms (cartesian axes, Ry/au):

     atom    1 type  2   force =     0.00177318    0.00177318    0.00177318
     atom    2 type  1   force =     0.00067172    0.00067172    0.00067172
     atom    3 type  3   force =    -0.00244491   -0.00244491   -0.00244491

     Total force =     0.005359     Total SCF correction =     0.000034


     Computing stress (Cartesian axis) and pressure


     negative rho (up, down):  8.210E-04 0.000E+00
          total   stress  (Ry/bohr**3)                   (kbar)     P=       21.52
   0.00014627  -0.00000085  -0.00000085           21.52       -0.13       -0.13
  -0.00000085   0.00014627  -0.00000085           -0.13       21.52       -0.13
  -0.00000085  -0.00000085   0.00014627           -0.13       -0.13       21.52

     Energy error            =      2.5E-03 Ry
     Gradient error          =      2.4E-03 Ry/Bohr
     Cell gradient error     =      2.2E+01 kbar

     number of scf cycles    =   4
     number of bfgs steps    =   3

     enthalpy           old  =    -449.6756738599 Ry
     enthalpy           new  =    -449.6781805020 Ry

     CASE: enthalpy          _new < enthalpy          _old

     new trust radius        =       0.0123193915 bohr
     new conv_thr            =       0.0000000002 Ry

     new unit-cell volume =    197.61139 a.u.^3 (    29.28299 Ang^3 )
     density =      5.93829 g/cm^3

CELL_PARAMETERS (alat=  5.55330037)
   1.054349201   0.077781959   0.077781959
   0.077781959   1.054349201   0.077781959
   0.077781959   0.077781959   1.054349201

ATOMIC_POSITIONS (crystal)
Fe               0.5261528441        0.5261528441        0.5261528441
Ti              -0.0408547227       -0.0408547227       -0.0408547227
H                0.2674478786        0.2674478786        0.2674478786



     Writing config-only to output data dir ./outputs/TiFe.save/ :
     XML data file     NEW-OLD atomic charge density approx. for the potential
     New effective cutoffs (rho, wfc): 1185.98  148.39

     Check: negative core charge=   -0.000005

     negative rho (up, down):  8.290E-04 0.000E+00

     total cpu time spent up to now is      219.9 secs

     per-process dynamical memory:   167.3 Mb

     Self-consistent Calculation

     iteration #  1     ecut=   140.00 Ry     beta= 0.70
     Davidson diagonalization with overlap
     ethr =  1.00E-06,  avg # of iterations =  6.9

     negative rho (up, down):  8.229E-04 0.000E+00

     total cpu time spent up to now is      225.2 secs

     total energy              =    -449.67834385 Ry
     estimated scf accuracy    <       0.00003016 Ry

     iteration #  2     ecut=   140.00 Ry     beta= 0.70
     Davidson diagonalization with overlap
     ethr =  1.04E-07,  avg # of iterations =  5.0

     negative rho (up, down):  8.245E-04 0.000E+00

     total cpu time spent up to now is      229.4 secs

     total energy              =    -449.67821260 Ry
     estimated scf accuracy    <       0.00390373 Ry

     iteration #  3     ecut=   140.00 Ry     beta= 0.70
     Davidson diagonalization with overlap
     ethr =  1.04E-07,  avg # of iterations =  4.3

     negative rho (up, down):  8.254E-04 0.000E+00

     total cpu time spent up to now is      232.8 secs

     total energy              =    -449.67837055 Ry
     estimated scf accuracy    <       0.00000682 Ry

     iteration #  4     ecut=   140.00 Ry     beta= 0.70
     Davidson diagonalization with overlap
     ethr =  2.35E-08,  avg # of iterations =  3.0

     negative rho (up, down):  8.252E-04 0.000E+00

     total cpu time spent up to now is      236.0 secs

     total energy              =    -449.67837302 Ry
     estimated scf accuracy    <       0.00000371 Ry

     iteration #  5     ecut=   140.00 Ry     beta= 0.70
     Davidson diagonalization with overlap
     ethr =  1.28E-08,  avg # of iterations =  1.0

     negative rho (up, down):  8.250E-04 0.000E+00

     total cpu time spent up to now is      238.6 secs

     total energy              =    -449.67837318 Ry
     estimated scf accuracy    <       0.00000015 Ry

     iteration #  6     ecut=   140.00 Ry     beta= 0.70
     Davidson diagonalization with overlap
     ethr =  5.24E-10,  avg # of iterations =  4.4

     negative rho (up, down):  8.250E-04 0.000E+00

     total cpu time spent up to now is      242.4 secs

     total energy              =    -449.67837326 Ry
     estimated scf accuracy    <       0.00000001 Ry

     iteration #  7     ecut=   140.00 Ry     beta= 0.70
     Davidson diagonalization with overlap
     ethr =  3.76E-11,  avg # of iterations =  2.9

     negative rho (up, down):  8.250E-04 0.000E+00

     total cpu time spent up to now is      245.4 secs

     total energy              =    -449.67837325 Ry
     estimated scf accuracy    <          8.3E-10 Ry

     iteration #  8     ecut=   140.00 Ry     beta= 0.70
     Davidson diagonalization with overlap
     ethr =  2.86E-12,  avg # of iterations =  4.3

     negative rho (up, down):  8.250E-04 0.000E+00

     total cpu time spent up to now is      249.1 secs

     total energy              =    -449.67837325 Ry
     estimated scf accuracy    <          2.8E-10 Ry

     iteration #  9     ecut=   140.00 Ry     beta= 0.70
     Davidson diagonalization with overlap
     ethr =  9.80E-13,  avg # of iterations =  2.1

     negative rho (up, down):  8.250E-04 0.000E+00

     total cpu time spent up to now is      252.1 secs

     End of self-consistent calculation

     Number of k-points >= 100: set verbosity='high' to print the bands.

     the Fermi energy is    15.9275 ev

!    total energy              =    -449.67837325 Ry
     estimated scf accuracy    <          2.8E-11 Ry
     smearing contrib. (-TS)   =       0.00003858 Ry
     internal energy E=F+TS    =    -449.67841183 Ry

     The total energy is F=E-TS. E is the sum of the following terms:
     one-electron contribution =    -168.58228629 Ry
     hartree contribution      =      99.11262589 Ry
     xc contribution           =     -53.63895589 Ry
     ewald contribution        =    -250.42172456 Ry
     one-center paw contrib.   =     -76.14807098 Ry

     convergence has been achieved in   9 iterations

     negative rho (up, down):  8.250E-04 0.000E+00

     Forces acting on atoms (cartesian axes, Ry/au):

     atom    1 type  2   force =     0.00142416    0.00142416    0.00142416
     atom    2 type  1   force =    -0.00021796   -0.00021796   -0.00021796
     atom    3 type  3   force =    -0.00120619   -0.00120619   -0.00120619

     Total force =     0.003255     Total SCF correction =     0.000003


     Computing stress (Cartesian axis) and pressure


     negative rho (up, down):  8.250E-04 0.000E+00
          total   stress  (Ry/bohr**3)                   (kbar)     P=        0.07
   0.00000046   0.00000329   0.00000329            0.07        0.48        0.48
   0.00000329   0.00000046   0.00000329            0.48        0.07        0.48
   0.00000329   0.00000329   0.00000046            0.48        0.48        0.07

     Energy error            =      1.9E-04 Ry
     Gradient error          =      1.4E-03 Ry/Bohr
     Cell gradient error     =      4.8E-01 kbar

     number of scf cycles    =   5
     number of bfgs steps    =   4

     enthalpy           old  =    -449.6781805020 Ry
     enthalpy           new  =    -449.6783732516 Ry

     CASE: enthalpy          _new < enthalpy          _old

     new trust radius        =       0.0041643639 bohr
     new conv_thr            =       0.0000000001 Ry

     new unit-cell volume =    197.59556 a.u.^3 (    29.28064 Ang^3 )
     density =      5.93876 g/cm^3

CELL_PARAMETERS (alat=  5.55330037)
   1.054338658   0.077908054   0.077908054
   0.077908054   1.054338658   0.077908054
   0.077908054   0.077908054   1.054338658

ATOMIC_POSITIONS (crystal)
Fe               0.5265106790        0.5265106790        0.5265106790
Ti              -0.0409065091       -0.0409065091       -0.0409065091
H                0.2671418301        0.2671418301        0.2671418301



     Writing config-only to output data dir ./outputs/TiFe.save/ :
     XML data file     NEW-OLD atomic charge density approx. for the potential
     New effective cutoffs (rho, wfc): 1186.31  148.43

     Check: negative core charge=   -0.000005

     negative rho (up, down):  8.255E-04 0.000E+00

     total cpu time spent up to now is      254.2 secs

     per-process dynamical memory:   167.3 Mb

     Self-consistent Calculation

     iteration #  1     ecut=   140.00 Ry     beta= 0.70
     Davidson diagonalization with overlap
     ethr =  1.00E-06,  avg # of iterations =  5.4

     Threshold (ethr) on eigenvalues was too large:
     Diagonalizing with lowered threshold

     Davidson diagonalization with overlap
     ethr =  8.32E-08,  avg # of iterations =  3.9

     negative rho (up, down):  8.236E-04 0.000E+00

     total cpu time spent up to now is      261.7 secs

     total energy              =    -449.67837131 Ry
     estimated scf accuracy    <       0.00002322 Ry

     iteration #  2     ecut=   140.00 Ry     beta= 0.70
     Davidson diagonalization with overlap
     ethr =  8.01E-08,  avg # of iterations =  4.5

     negative rho (up, down):  8.252E-04 0.000E+00

     total cpu time spent up to now is      265.6 secs

     total energy              =    -449.67823256 Ry
     estimated scf accuracy    <       0.00359267 Ry

     iteration #  3     ecut=   140.00 Ry     beta= 0.70
     Davidson diagonalization with overlap
     ethr =  8.01E-08,  avg # of iterations =  4.5

     negative rho (up, down):  8.256E-04 0.000E+00

     total cpu time spent up to now is      269.4 secs

     total energy              =    -449.67838627 Ry
     estimated scf accuracy    <       0.00000366 Ry

     iteration #  4     ecut=   140.00 Ry     beta= 0.70
     Davidson diagonalization with overlap
     ethr =  1.26E-08,  avg # of iterations =  2.0

     negative rho (up, down):  8.254E-04 0.000E+00

     total cpu time spent up to now is      272.5 secs

     total energy              =    -449.67838677 Ry
     estimated scf accuracy    <       0.00000016 Ry

     iteration #  5     ecut=   140.00 Ry     beta= 0.70
     Davidson diagonalization with overlap
     ethr =  5.56E-10,  avg # of iterations =  4.5

     negative rho (up, down):  8.254E-04 0.000E+00

     total cpu time spent up to now is      276.5 secs

     total energy              =    -449.67838683 Ry
     estimated scf accuracy    <          1.0E-08 Ry

     iteration #  6     ecut=   140.00 Ry     beta= 0.70
     Davidson diagonalization with overlap
     ethr =  3.44E-11,  avg # of iterations =  3.9

     negative rho (up, down):  8.254E-04 0.000E+00

     total cpu time spent up to now is      280.2 secs

     total energy              =    -449.67838683 Ry
     estimated scf accuracy    <          7.3E-10 Ry

     iteration #  7     ecut=   140.00 Ry     beta= 0.70
     Davidson diagonalization with overlap
     ethr =  2.52E-12,  avg # of iterations =  4.1

     negative rho (up, down):  8.254E-04 0.000E+00

     total cpu time spent up to now is      283.8 secs

     End of self-consistent calculation

     Number of k-points >= 100: set verbosity='high' to print the bands.

     the Fermi energy is    15.9278 ev

!    total energy              =    -449.67838683 Ry
     estimated scf accuracy    <          8.7E-11 Ry
     smearing contrib. (-TS)   =       0.00003746 Ry
     internal energy E=F+TS    =    -449.67842429 Ry

     The total energy is F=E-TS. E is the sum of the following terms:
     one-electron contribution =    -168.58290870 Ry
     hartree contribution      =      99.11604089 Ry
     xc contribution           =     -53.63903735 Ry
     ewald contribution        =    -250.42447386 Ry
     one-center paw contrib.   =     -76.14804526 Ry

     convergence has been achieved in   7 iterations

     negative rho (up, down):  8.254E-04 0.000E+00

     Forces acting on atoms (cartesian axes, Ry/au):

     atom    1 type  2   force =     0.00085694    0.00085694    0.00085694
     atom    2 type  1   force =    -0.00045247   -0.00045247   -0.00045247
     atom    3 type  3   force =    -0.00040448   -0.00040448   -0.00040448

     Total force =     0.001819     Total SCF correction =     0.000014


     Computing stress (Cartesian axis) and pressure


     negative rho (up, down):  8.254E-04 0.000E+00
          total   stress  (Ry/bohr**3)                   (kbar)     P=       -0.18
  -0.00000124  -0.00000131  -0.00000131           -0.18       -0.19       -0.19
  -0.00000131  -0.00000124  -0.00000131           -0.19       -0.18       -0.19
  -0.00000131  -0.00000131  -0.00000124           -0.19       -0.19       -0.18

     Energy error            =      1.4E-05 Ry
     Gradient error          =      8.6E-04 Ry/Bohr
     Cell gradient error     =      1.9E-01 kbar

     bfgs converged in   6 scf cycles and   5 bfgs steps
     (criteria: energy <  1.0E-04 Ry, force <  1.0E-03 Ry/Bohr, cell <  5.0E-01 kbar)

     End of BFGS Geometry Optimization

     Final enthalpy           =    -449.6783868342 Ry

     File ./outputs/TiFe.bfgs deleted, as requested
Begin final coordinates
     new unit-cell volume =    197.59556 a.u.^3 (    29.28064 Ang^3 )
     density =      5.93876 g/cm^3

CELL_PARAMETERS (alat=  5.55330037)
   1.054338658   0.077908054   0.077908054
   0.077908054   1.054338658   0.077908054
   0.077908054   0.077908054   1.054338658

ATOMIC_POSITIONS (crystal)
Fe               0.5265106790        0.5265106790        0.5265106790
Ti              -0.0409065091       -0.0409065091       -0.0409065091
H                0.2671418301        0.2671418301        0.2671418301
End final coordinates



     Writing config-only to output data dir ./outputs/TiFe.save/ :
     XML data file
     Final scf calculation at the relaxed structure.
     The G-vectors are recalculated for the final unit cell
     Results may differ from those at the preceding step.

     Parallelization info
     --------------------
     sticks:   dense  smooth     PW     G-vecs:    dense   smooth      PW
     Min         381     191     54                15643     5522     856
     Max         382     192     55                15647     5525     857
     Sum        3055    1533    433               125165    44183    6849

     Using Slab Decomposition



     bravais-lattice index     =            0
     lattice parameter (alat)  =       5.5533  a.u.
     unit-cell volume          =     197.5956 (a.u.)^3
     number of atoms/cell      =            3
     number of atomic types    =            3
     number of electrons       =        29.00
     number of Kohn-Sham states=           19
     kinetic-energy cutoff     =     140.0000  Ry
     charge density cutoff     =    1120.0000  Ry
     scf convergence threshold =      1.4E-10
     mixing beta               =       0.7000
     number of iterations used =            8  plain     mixing
     press convergence thresh. =      5.0E-01
     Exchange-correlation= PBE
                           (   1   4   3   4   0   0   0)

     celldm(1)=   5.553300  celldm(2)=   0.000000  celldm(3)=   0.000000
     celldm(4)=   0.000000  celldm(5)=   0.000000  celldm(6)=   0.000000

     crystal axes: (cart. coord. in units of alat)
               a(1) = (   1.054339   0.077908   0.077908 )  
               a(2) = (   0.077908   1.054339   0.077908 )  
               a(3) = (   0.077908   0.077908   1.054339 )  

     reciprocal axes: (cart. coord. in units 2 pi/alat)
               b(1) = (  0.958206 -0.065933 -0.065933 )  
               b(2) = ( -0.065933  0.958206 -0.065933 )  
               b(3) = ( -0.065933 -0.065933  0.958206 )  


     PseudoPot. # 1 for Ti read from file:
     /vscmnt/antwerpen_storage_home/_user_antwerpen/211/vsc21140/pseudos/ti_pbe_v1.4.uspp.F.UPF
     MD5 check sum: 88a00a6731bd790ddea75d31a80cb452
     Pseudo is Ultrasoft + core correction, Zval = 12.0
     Generated by new atomic code, or converted to UPF format
     Using radial grid of  851 points,  6 beta functions with: 
                l(1) =   0
                l(2) =   0
                l(3) =   1
                l(4) =   1
                l(5) =   2
                l(6) =   2
     Q(r) pseudized with  6 coefficients,  rinner =    1.000   1.000   1.000
                                                       1.000   1.000

     PseudoPot. # 2 for Fe read from file:
     /vscmnt/antwerpen_storage_home/_user_antwerpen/211/vsc21140/pseudos/Fe.pbe-spn-kjpaw_psl.0.2.1.UPF
     MD5 check sum: e86618425769142926afa95317d90200
     Pseudo is Projector augmented-wave + core cor, Zval = 16.0
     Generated using "atomic" code by A. Dal Corso  v.5.0.99 svn rev. 10869
     Shape of augmentation charge: PSQ
     Using radial grid of 1191 points,  6 beta functions with: 
                l(1) =   0
                l(2) =   0
                l(3) =   1
                l(4) =   1
                l(5) =   2
                l(6) =   2
     Q(r) pseudized with 0 coefficients 


     PseudoPot. # 3 for H  read from file:
     /vscmnt/antwerpen_storage_home/_user_antwerpen/211/vsc21140/pseudos/H.pbe-rrkjus_psl.1.0.0.UPF
     MD5 check sum: f52b6d4d1c606e5624b1dc7b2218f220
     Pseudo is Ultrasoft, Zval =  1.0
     Generated using "atomic" code by A. Dal Corso  v.5.1
     Using radial grid of  929 points,  2 beta functions with: 
                l(1) =   0
                l(2) =   0
     Q(r) pseudized with 0 coefficients 


     atomic species   valence    mass     pseudopotential
     Ti               12.00    47.86700     Ti( 1.00)
     Fe               16.00    55.84500     Fe( 1.00)
     H                 1.00     1.00750     H ( 1.00)

      6 Sym. Ops. (no inversion) found



   Cartesian axes

     site n.     atom                  positions (alat units)
         1        Fe     tau(   1) = (   0.6371594   0.6371594   0.6371594  )
         2        Ti     tau(   2) = (  -0.0495032  -0.0495032  -0.0495032  )
         3        H      tau(   3) = (   0.3232830   0.3232830   0.3232830  )

     number of k points=   146  Marzari-Vanderbilt smearing, width (Ry)=  0.0050

     Number of k-points >= 100: set verbosity='high' to print them.

     Dense  grid:   125165 G-vectors     FFT dimensions: (  64,  64,  64)

     Smooth grid:    44183 G-vectors     FFT dimensions: (  45,  45,  45)

     Estimated max dynamical RAM per process >     103.85 MB

     Estimated total dynamical RAM >     830.79 MB

     Check: negative core charge=   -0.000005

     Initial potential from superposition of free atoms

     starting charge      27.9995, renormalised to      29.0000

     negative rho (up, down):  1.338E-03 0.000E+00
     Starting wfcs are   24 randomized atomic wfcs
     Checking if some PAW data can be deallocated... 

     total cpu time spent up to now is      287.7 secs

     per-process dynamical memory:   166.0 Mb

     Self-consistent Calculation

     iteration #  1     ecut=   140.00 Ry     beta= 0.70
     Davidson diagonalization with overlap
     c_bands:  1 eigenvalues not converged
     c_bands:  1 eigenvalues not converged
     c_bands:  1 eigenvalues not converged
     c_bands:  1 eigenvalues not converged
     c_bands:  1 eigenvalues not converged
     c_bands:  1 eigenvalues not converged
     c_bands:  1 eigenvalues not converged
     c_bands:  1 eigenvalues not converged
     c_bands:  1 eigenvalues not converged
     c_bands:  1 eigenvalues not converged
     c_bands:  1 eigenvalues not converged
     c_bands:  1 eigenvalues not converged
     c_bands:  1 eigenvalues not converged
     c_bands:  1 eigenvalues not converged
     c_bands:  1 eigenvalues not converged
     c_bands:  2 eigenvalues not converged
     c_bands:  2 eigenvalues not converged
     c_bands:  1 eigenvalues not converged
     c_bands:  2 eigenvalues not converged
     c_bands:  1 eigenvalues not converged
     c_bands:  2 eigenvalues not converged
     c_bands:  2 eigenvalues not converged
     c_bands:  1 eigenvalues not converged
     c_bands:  1 eigenvalues not converged
     c_bands:  1 eigenvalues not converged
     c_bands:  1 eigenvalues not converged
     c_bands:  1 eigenvalues not converged
     c_bands:  1 eigenvalues not converged
     c_bands:  1 eigenvalues not converged
     c_bands:  1 eigenvalues not converged
     c_bands:  2 eigenvalues not converged
     c_bands:  1 eigenvalues not converged
     c_bands:  1 eigenvalues not converged
     c_bands:  1 eigenvalues not converged
     c_bands:  1 eigenvalues not converged
     c_bands:  1 eigenvalues not converged
     c_bands:  2 eigenvalues not converged
     c_bands:  1 eigenvalues not converged
     c_bands:  2 eigenvalues not converged
     c_bands:  1 eigenvalues not converged
     c_bands:  1 eigenvalues not converged
     c_bands:  1 eigenvalues not converged
     c_bands:  1 eigenvalues not converged
     c_bands:  1 eigenvalues not converged
     c_bands:  1 eigenvalues not converged
     c_bands:  1 eigenvalues not converged
     c_bands:  1 eigenvalues not converged
     c_bands:  1 eigenvalues not converged
     c_bands:  1 eigenvalues not converged
     c_bands:  1 eigenvalues not converged
     c_bands:  1 eigenvalues not converged
     c_bands:  1 eigenvalues not converged
     c_bands:  1 eigenvalues not converged
     c_bands:  1 eigenvalues not converged
     c_bands:  1 eigenvalues not converged
     c_bands:  1 eigenvalues not converged
     c_bands:  1 eigenvalues not converged
     c_bands:  1 eigenvalues not converged
     c_bands:  1 eigenvalues not converged
     c_bands:  1 eigenvalues not converged
     c_bands:  1 eigenvalues not converged
     ethr =  1.00E-06,  avg # of iterations = 18.4

     negative rho (up, down):  5.806E-05 0.000E+00

     total cpu time spent up to now is      304.2 secs

     total energy              =    -436.37606535 Ry
     estimated scf accuracy    <      16.87943492 Ry

     iteration #  2     ecut=   140.00 Ry     beta= 0.70
     Davidson diagonalization with overlap
     ethr =  1.00E-02,  avg # of iterations =  6.5

     negative rho (up, down):  5.154E-05 0.000E+00

     total cpu time spent up to now is      310.2 secs

     total energy              =    -449.71581321 Ry
     estimated scf accuracy    <      65.60240603 Ry

     iteration #  3     ecut=   140.00 Ry     beta= 0.70
     Davidson diagonalization with overlap
     ethr =  1.00E-02,  avg # of iterations =  2.9

     negative rho (up, down):  3.187E-04 0.000E+00

     total cpu time spent up to now is      314.2 secs

     total energy              =    -449.78726741 Ry
     estimated scf accuracy    <      16.76122225 Ry

     iteration #  4     ecut=   140.00 Ry     beta= 0.70
     Davidson diagonalization with overlap
     ethr =  1.00E-02,  avg # of iterations =  2.2

     negative rho (up, down):  3.439E-04 0.000E+00

     total cpu time spent up to now is      317.6 secs

     total energy              =    -450.27651853 Ry
     estimated scf accuracy    <       5.24689133 Ry

     iteration #  5     ecut=   140.00 Ry     beta= 0.70
     Davidson diagonalization with overlap
     ethr =  1.00E-02,  avg # of iterations =  1.0

     negative rho (up, down):  4.957E-04 0.000E+00

     total cpu time spent up to now is      320.3 secs

     total energy              =    -450.07226534 Ry
     estimated scf accuracy    <       4.97405976 Ry

     iteration #  6     ecut=   140.00 Ry     beta= 0.70
     Davidson diagonalization with overlap
     ethr =  1.00E-02,  avg # of iterations =  1.1

     negative rho (up, down):  1.073E-03 0.000E+00

     total cpu time spent up to now is      323.1 secs

     total energy              =    -449.01993604 Ry
     estimated scf accuracy    <       4.44906510 Ry

     iteration #  7     ecut=   140.00 Ry     beta= 0.70
     Davidson diagonalization with overlap
     ethr =  1.00E-02,  avg # of iterations =  2.8

     negative rho (up, down):  8.516E-04 0.000E+00

     total cpu time spent up to now is      326.4 secs

     total energy              =    -449.67645769 Ry
     estimated scf accuracy    <       5.89118245 Ry

     iteration #  8     ecut=   140.00 Ry     beta= 0.70
     Davidson diagonalization with overlap
     ethr =  1.00E-02,  avg # of iterations =  1.0

     negative rho (up, down):  8.390E-04 0.000E+00

     total cpu time spent up to now is      329.2 secs

     total energy              =    -449.75595847 Ry
     estimated scf accuracy    <       1.78913310 Ry

     iteration #  9     ecut=   140.00 Ry     beta= 0.70
     Davidson diagonalization with overlap
     ethr =  6.17E-03,  avg # of iterations =  1.0

     negative rho (up, down):  8.209E-04 0.000E+00

     total cpu time spent up to now is      331.8 secs

     total energy              =    -449.74112758 Ry
     estimated scf accuracy    <       1.93337497 Ry

     iteration # 10     ecut=   140.00 Ry     beta= 0.70
     Davidson diagonalization with overlap
     ethr =  6.17E-03,  avg # of iterations =  1.0

     negative rho (up, down):  1.217E-03 0.000E+00

     total cpu time spent up to now is      334.5 secs

     total energy              =    -450.15133075 Ry
     estimated scf accuracy    <       1.57046555 Ry

     iteration # 11     ecut=   140.00 Ry     beta= 0.70
     Davidson diagonalization with overlap
     ethr =  5.42E-03,  avg # of iterations =  2.3

     negative rho (up, down):  1.277E-03 0.000E+00

     total cpu time spent up to now is      337.5 secs

     total energy              =    -450.67673899 Ry
     estimated scf accuracy    <      17.17163635 Ry

     iteration # 12     ecut=   140.00 Ry     beta= 0.70
     Davidson diagonalization with overlap
     ethr =  5.42E-03,  avg # of iterations =  1.1

     negative rho (up, down):  2.029E-04 0.000E+00

     total cpu time spent up to now is      340.2 secs

     total energy              =    -447.77312208 Ry
     estimated scf accuracy    <      18.75004199 Ry

     iteration # 13     ecut=   140.00 Ry     beta= 0.70
     Davidson diagonalization with overlap
     ethr =  5.42E-03,  avg # of iterations =  3.5

     negative rho (up, down):  2.509E-04 0.000E+00

     total cpu time spent up to now is      343.8 secs

     total energy              =    -449.92070320 Ry
     estimated scf accuracy    <       1.61151046 Ry

     iteration # 14     ecut=   140.00 Ry     beta= 0.70
     Davidson diagonalization with overlap
     ethr =  5.42E-03,  avg # of iterations =  1.0

     negative rho (up, down):  8.300E-05 0.000E+00

     total cpu time spent up to now is      346.5 secs

     total energy              =    -450.02261540 Ry
     estimated scf accuracy    <       1.32407589 Ry

     iteration # 15     ecut=   140.00 Ry     beta= 0.70
     Davidson diagonalization with overlap
     ethr =  4.57E-03,  avg # of iterations =  1.0

     negative rho (up, down):  7.102E-04 0.000E+00

     total cpu time spent up to now is      349.2 secs

     total energy              =    -449.54298001 Ry
     estimated scf accuracy    <       1.49329318 Ry

     iteration # 16     ecut=   140.00 Ry     beta= 0.70
     Davidson diagonalization with overlap
     ethr =  4.57E-03,  avg # of iterations =  2.0

     negative rho (up, down):  7.398E-04 0.000E+00

     total cpu time spent up to now is      352.1 secs

     total energy              =    -449.65976164 Ry
     estimated scf accuracy    <       0.07779420 Ry

     iteration # 17     ecut=   140.00 Ry     beta= 0.70
     Davidson diagonalization with overlap
     ethr =  2.68E-04,  avg # of iterations =  4.2

     negative rho (up, down):  6.707E-04 0.000E+00

     total cpu time spent up to now is      355.9 secs

     total energy              =    -449.67793555 Ry
     estimated scf accuracy    <       0.00364570 Ry

     iteration # 18     ecut=   140.00 Ry     beta= 0.70
     Davidson diagonalization with overlap
     ethr =  1.26E-05,  avg # of iterations =  3.8

     negative rho (up, down):  7.404E-04 0.000E+00

     total cpu time spent up to now is      359.4 secs

     total energy              =    -449.67861795 Ry
     estimated scf accuracy    <       0.01245154 Ry

     iteration # 19     ecut=   140.00 Ry     beta= 0.70
     Davidson diagonalization with overlap
     ethr =  1.26E-05,  avg # of iterations =  1.0

     negative rho (up, down):  7.155E-04 0.000E+00

     total cpu time spent up to now is      362.0 secs

     total energy              =    -449.67860981 Ry
     estimated scf accuracy    <       0.00473230 Ry

     iteration # 20     ecut=   140.00 Ry     beta= 0.70
     Davidson diagonalization with overlap
     ethr =  1.26E-05,  avg # of iterations =  1.7

     negative rho (up, down):  7.241E-04 0.000E+00

     total cpu time spent up to now is      364.8 secs

     total energy              =    -449.67873608 Ry
     estimated scf accuracy    <       0.00149447 Ry

     iteration # 21     ecut=   140.00 Ry     beta= 0.70
     Davidson diagonalization with overlap
     ethr =  5.15E-06,  avg # of iterations =  1.1

     negative rho (up, down):  7.314E-04 0.000E+00

     total cpu time spent up to now is      367.4 secs

     total energy              =    -449.67861878 Ry
     estimated scf accuracy    <       0.00155754 Ry

     iteration # 22     ecut=   140.00 Ry     beta= 0.70
     Davidson diagonalization with overlap
     ethr =  5.15E-06,  avg # of iterations =  1.0

     negative rho (up, down):  7.371E-04 0.000E+00

     total cpu time spent up to now is      370.0 secs

     total energy              =    -449.67858559 Ry
     estimated scf accuracy    <       0.00055216 Ry

     iteration # 23     ecut=   140.00 Ry     beta= 0.70
     Davidson diagonalization with overlap
     ethr =  1.90E-06,  avg # of iterations =  1.6

     negative rho (up, down):  7.438E-04 0.000E+00

     total cpu time spent up to now is      372.7 secs

     total energy              =    -449.67858257 Ry
     estimated scf accuracy    <       0.00015525 Ry

     iteration # 24     ecut=   140.00 Ry     beta= 0.70
     Davidson diagonalization with overlap
     ethr =  5.35E-07,  avg # of iterations =  1.8

     negative rho (up, down):  7.439E-04 0.000E+00

     total cpu time spent up to now is      375.5 secs

     total energy              =    -449.67859665 Ry
     estimated scf accuracy    <       0.00000278 Ry

     iteration # 25     ecut=   140.00 Ry     beta= 0.70
     Davidson diagonalization with overlap
     ethr =  9.58E-09,  avg # of iterations =  5.0

     negative rho (up, down):  7.431E-04 0.000E+00

     total cpu time spent up to now is      379.6 secs

     total energy              =    -449.67859900 Ry
     estimated scf accuracy    <       0.00000306 Ry

     iteration # 26     ecut=   140.00 Ry     beta= 0.70
     Davidson diagonalization with overlap
     ethr =  9.58E-09,  avg # of iterations =  1.8

     negative rho (up, down):  7.427E-04 0.000E+00

     total cpu time spent up to now is      382.4 secs

     total energy              =    -449.67859910 Ry
     estimated scf accuracy    <       0.00000028 Ry

     iteration # 27     ecut=   140.00 Ry     beta= 0.70
     Davidson diagonalization with overlap
     ethr =  9.72E-10,  avg # of iterations =  3.7

     negative rho (up, down):  7.428E-04 0.000E+00

     total cpu time spent up to now is      385.7 secs

     total energy              =    -449.67859918 Ry
     estimated scf accuracy    <       0.00000010 Ry

     iteration # 28     ecut=   140.00 Ry     beta= 0.70
     Davidson diagonalization with overlap
     ethr =  3.49E-10,  avg # of iterations =  1.6

     negative rho (up, down):  7.429E-04 0.000E+00

     total cpu time spent up to now is      388.4 secs

     total energy              =    -449.67859918 Ry
     estimated scf accuracy    <       0.00000003 Ry

     iteration # 29     ecut=   140.00 Ry     beta= 0.70
     Davidson diagonalization with overlap
     ethr =  1.06E-10,  avg # of iterations =  2.3

     negative rho (up, down):  7.429E-04 0.000E+00

     total cpu time spent up to now is      391.5 secs

     End of self-consistent calculation

     Number of k-points >= 100: set verbosity='high' to print the bands.

     the Fermi energy is    15.9278 ev

!    total energy              =    -449.67859919 Ry
     estimated scf accuracy    <          1.3E-10 Ry
     smearing contrib. (-TS)   =       0.00003740 Ry
     internal energy E=F+TS    =    -449.67863659 Ry

     The total energy is F=E-TS. E is the sum of the following terms:
     one-electron contribution =    -168.58241453 Ry
     hartree contribution      =      99.11555783 Ry
     xc contribution           =     -53.63922495 Ry
     ewald contribution        =    -250.42447386 Ry
     one-center paw contrib.   =     -76.14808107 Ry

     convergence has been achieved in  29 iterations

     negative rho (up, down):  7.429E-04 0.000E+00

     Forces acting on atoms (cartesian axes, Ry/au):

     atom    1 type  2   force =     0.00085619    0.00085619    0.00085619
     atom    2 type  1   force =    -0.00045498   -0.00045498   -0.00045498
     atom    3 type  3   force =    -0.00040121   -0.00040121   -0.00040121

     Total force =     0.001817     Total SCF correction =     0.000005


     Computing stress (Cartesian axis) and pressure


     negative rho (up, down):  7.429E-04 0.000E+00
          total   stress  (Ry/bohr**3)                   (kbar)     P=        0.27
   0.00000182   0.00000004   0.00000004            0.27        0.01        0.01
   0.00000004   0.00000182   0.00000004            0.01        0.27        0.01
   0.00000004   0.00000004   0.00000182            0.01        0.01        0.27


     Writing all to output data dir ./outputs/TiFe.save/ :
     XML data file
     init_run     :      4.31s CPU      4.57s WALL (       2 calls)
     electrons    :    363.98s CPU    373.99s WALL (       7 calls)
     update_pot   :      0.44s CPU      0.50s WALL (       5 calls)
     forces       :      1.89s CPU      2.00s WALL (       7 calls)
     stress       :      9.66s CPU      9.96s WALL (       7 calls)

     Called by init_run:
     wfcinit      :      2.49s CPU      2.65s WALL (       2 calls)
     potinit      :      0.30s CPU      0.34s WALL (       2 calls)
     hinit0       :      0.90s CPU      0.93s WALL (       2 calls)

     Called by electrons:
     c_bands      :    299.38s CPU    305.43s WALL (     100 calls)
     sum_band     :     48.43s CPU     50.69s WALL (     100 calls)
     v_of_rho     :      1.17s CPU      1.29s WALL (     106 calls)
     newd         :      8.62s CPU      9.54s WALL (     106 calls)
     PAW_pot      :      7.57s CPU      8.34s WALL (     111 calls)
     mix_rho      :      0.15s CPU      0.17s WALL (     100 calls)

     Called by c_bands:
     init_us_2    :      7.03s CPU      7.27s WALL (   32266 calls)
     cegterg      :    288.38s CPU    293.90s WALL (   14723 calls)

     Called by *egterg:
     cdiaghg      :     25.97s CPU     26.51s WALL (   63975 calls)
     h_psi        :    227.46s CPU    231.97s WALL (   65266 calls)
     s_psi        :      5.34s CPU      5.46s WALL (   65266 calls)
     g_psi        :      1.28s CPU      1.30s WALL (   50251 calls)

     Called by h_psi:
     h_psi:calbec :      8.11s CPU      8.26s WALL (   65266 calls)
     vloc_psi     :    212.95s CPU    217.19s WALL (   65266 calls)
     add_vuspsi   :      5.45s CPU      5.57s WALL (   65266 calls)

     General routines
     calbec       :     12.55s CPU     12.82s WALL (   97970 calls)
     fft          :      1.26s CPU      1.40s WALL (    1545 calls)
     ffts         :      0.15s CPU      0.16s WALL (     206 calls)
     fftw         :    214.70s CPU    218.89s WALL ( 1961140 calls)
     interpolate  :      0.18s CPU      0.19s WALL (     106 calls)

     Parallel routines

     PWSCF        :    381.64s CPU    393.47s WALL


   This run was terminated on:  17:18:37   5Nov2025            

=------------------------------------------------------------------------------=
   JOB DONE.
=------------------------------------------------------------------------------=
