
     Program PWSCF v.7.4 starts on  5Nov2025 at 13:52:23 

     This program is part of the open-source Quantum ESPRESSO suite
     for quantum simulation of materials; please cite
         "P. Giannozzi et al., J. Phys.:Condens. Matter 21 395502 (2009);
         "P. Giannozzi et al., J. Phys.:Condens. Matter 29 465901 (2017);
         "P. Giannozzi et al., J. Chem. Phys. 152 154105 (2020);
          URL http://www.quantum-espresso.org", 
     in publications or presentations arising from this work. More details at
     http://www.quantum-espresso.org/quote

     Parallel version (MPI & OpenMP), running on       8 processor cores
     Number of MPI processes:                 8
     Threads/MPI process:                     1

     MPI processes distributed on     1 nodes
     203612 MiB available memory on the printing compute node when the environment starts

     Reading input from TiFe_H050500.in

     Current dimensions of program PWSCF are:
     Max number of different atomic species (ntypx) = 10
     Max number of k-points (npk) =  40000
     Max angular momentum in pseudopotentials (lmaxx) =  4
     file Fe.pbe-spn-kjpaw_psl.0.2.1.UPF: wavefunction(s)  3D renormalized

     IMPORTANT: XC functional enforced from input :
     Exchange-correlation= PBE
                           (   1   4   3   4   0   0   0)
     Any further DFT definition will be discarded
     Please, verify this is what you really want

     Message from routine setup:
     using ibrav=0 with symmetry is DISCOURAGED, use correct ibrav instead

     R & G space division:  proc/nbgrp/npool/nimage =       8
     Subspace diagonalization in iterative solution of the eigenvalue problem:
     a serial algorithm will be used


     Parallelization info
     --------------------
     sticks:   dense  smooth     PW     G-vecs:    dense   smooth      PW
     Min         347     172     50                13774     4875     752
     Max         349     174     51                13775     4876     755
     Sum        2785    1389    401               110195    39007    6031

     Using Slab Decomposition



     bravais-lattice index     =            0
     lattice parameter (alat)  =       5.5533  a.u.
     unit-cell volume          =     174.0962 (a.u.)^3
     number of atoms/cell      =            3
     number of atomic types    =            3
     number of electrons       =        29.00
     number of Kohn-Sham states=           19
     kinetic-energy cutoff     =     140.0000  Ry
     charge density cutoff     =    1120.0000  Ry
     scf convergence threshold =      1.0E-08
     mixing beta               =       0.7000
     number of iterations used =            8  plain     mixing
     energy convergence thresh.=      1.0E-04
     force convergence thresh. =      1.0E-03
     press convergence thresh. =      5.0E-01
     Exchange-correlation= PBE
                           (   1   4   3   4   0   0   0)
     nstep                     =           50


     celldm(1)=   5.553300  celldm(2)=   0.000000  celldm(3)=   0.000000
     celldm(4)=   0.000000  celldm(5)=   0.000000  celldm(6)=   0.000000

     crystal axes: (cart. coord. in units of alat)
               a(1) = (   1.005492   0.000000   0.000000 )  
               a(2) = (   0.000000   1.005492   0.000000 )  
               a(3) = (   0.000000   0.000000   1.005492 )  

     reciprocal axes: (cart. coord. in units 2 pi/alat)
               b(1) = (  0.994538  0.000000  0.000000 )  
               b(2) = (  0.000000  0.994538  0.000000 )  
               b(3) = (  0.000000  0.000000  0.994538 )  


     PseudoPot. # 1 for Ti read from file:
     /vscmnt/antwerpen_storage_home/_user_antwerpen/211/vsc21140/pseudos/ti_pbe_v1.4.uspp.F.UPF
     MD5 check sum: 88a00a6731bd790ddea75d31a80cb452
     Pseudo is Ultrasoft + core correction, Zval = 12.0
     Generated by new atomic code, or converted to UPF format
     Using radial grid of  851 points,  6 beta functions with: 
                l(1) =   0
                l(2) =   0
                l(3) =   1
                l(4) =   1
                l(5) =   2
                l(6) =   2
     Q(r) pseudized with  6 coefficients,  rinner =    1.000   1.000   1.000
                                                       1.000   1.000

     PseudoPot. # 2 for Fe read from file:
     /vscmnt/antwerpen_storage_home/_user_antwerpen/211/vsc21140/pseudos/Fe.pbe-spn-kjpaw_psl.0.2.1.UPF
     MD5 check sum: e86618425769142926afa95317d90200
     Pseudo is Projector augmented-wave + core cor, Zval = 16.0
     Generated using "atomic" code by A. Dal Corso  v.5.0.99 svn rev. 10869
     Shape of augmentation charge: PSQ
     Using radial grid of 1191 points,  6 beta functions with: 
                l(1) =   0
                l(2) =   0
                l(3) =   1
                l(4) =   1
                l(5) =   2
                l(6) =   2
     Q(r) pseudized with 0 coefficients 


     PseudoPot. # 3 for H  read from file:
     /vscmnt/antwerpen_storage_home/_user_antwerpen/211/vsc21140/pseudos/H.pbe-rrkjus_psl.1.0.0.UPF
     MD5 check sum: f52b6d4d1c606e5624b1dc7b2218f220
     Pseudo is Ultrasoft, Zval =  1.0
     Generated using "atomic" code by A. Dal Corso  v.5.1
     Using radial grid of  929 points,  2 beta functions with: 
                l(1) =   0
                l(2) =   0
     Q(r) pseudized with 0 coefficients 


     atomic species   valence    mass     pseudopotential
     Ti               12.00    47.86700     Ti( 1.00)
     Fe               16.00    55.84500     Fe( 1.00)
     H                 1.00     1.00750     H ( 1.00)

      2 Sym. Ops. (no inversion) found



   Cartesian axes

     site n.     atom                  positions (alat units)
         1        Fe     tau(   1) = (   0.5055071   0.5055071   0.5055071  )
         2        Ti     tau(   2) = (   0.0000000   0.0000000   0.0000000  )
         3        H      tau(   3) = (   0.5027460   0.5027460   0.0000000  )

     number of k points=   366  Marzari-Vanderbilt smearing, width (Ry)=  0.0050

     Number of k-points >= 100: set verbosity='high' to print them.

     Dense  grid:   110195 G-vectors     FFT dimensions: (  60,  60,  60)

     Smooth grid:    39007 G-vectors     FFT dimensions: (  45,  45,  45)

     Estimated max dynamical RAM per process >     131.87 MB

     Estimated total dynamical RAM >       1.03 GB

     Check: negative core charge=   -0.000005

     Initial potential from superposition of free atoms

     starting charge      27.9995, renormalised to      29.0000

     negative rho (up, down):  1.432E-03 0.000E+00
     Starting wfcs are   24 randomized atomic wfcs
     Checking if some PAW data can be deallocated... 

     total cpu time spent up to now is        4.6 secs

     per-process dynamical memory:   202.1 Mb

     Self-consistent Calculation

     iteration #  1     ecut=   140.00 Ry     beta= 0.70
     Davidson diagonalization with overlap
     ethr =  1.00E-02,  avg # of iterations =  2.2

     negative rho (up, down):  9.581E-05 0.000E+00

     total cpu time spent up to now is       11.7 secs

     total energy              =    -438.25179457 Ry
     estimated scf accuracy    <      14.62959374 Ry

     iteration #  2     ecut=   140.00 Ry     beta= 0.70
     Davidson diagonalization with overlap
     ethr =  1.00E-02,  avg # of iterations =  5.9

     negative rho (up, down):  5.622E-05 0.000E+00

     total cpu time spent up to now is       24.3 secs

     total energy              =    -449.74568834 Ry
     estimated scf accuracy    <      57.41740005 Ry

     iteration #  3     ecut=   140.00 Ry     beta= 0.70
     Davidson diagonalization with overlap
     ethr =  1.00E-02,  avg # of iterations =  2.9

     negative rho (up, down):  2.968E-04 0.000E+00

     total cpu time spent up to now is       33.0 secs

     total energy              =    -449.69041496 Ry
     estimated scf accuracy    <      14.59217432 Ry

     iteration #  4     ecut=   140.00 Ry     beta= 0.70
     Davidson diagonalization with overlap
     ethr =  1.00E-02,  avg # of iterations =  2.6

     negative rho (up, down):  2.848E-04 0.000E+00

     total cpu time spent up to now is       39.9 secs

     total energy              =    -450.21107646 Ry
     estimated scf accuracy    <       4.04544021 Ry

     iteration #  5     ecut=   140.00 Ry     beta= 0.70
     Davidson diagonalization with overlap
     ethr =  1.00E-02,  avg # of iterations =  1.0

     negative rho (up, down):  4.504E-04 0.000E+00

     total cpu time spent up to now is       45.8 secs

     total energy              =    -449.57030832 Ry
     estimated scf accuracy    <       3.80329479 Ry

     iteration #  6     ecut=   140.00 Ry     beta= 0.70
     Davidson diagonalization with overlap
     ethr =  1.00E-02,  avg # of iterations =  1.5

     negative rho (up, down):  5.210E-04 0.000E+00

     total cpu time spent up to now is       52.0 secs

     total energy              =    -449.75537917 Ry
     estimated scf accuracy    <       0.37360529 Ry

     iteration #  7     ecut=   140.00 Ry     beta= 0.70
     Davidson diagonalization with overlap
     ethr =  1.29E-03,  avg # of iterations =  3.2

     negative rho (up, down):  8.847E-04 0.000E+00

     total cpu time spent up to now is       59.0 secs

     total energy              =    -449.70988344 Ry
     estimated scf accuracy    <       0.22526183 Ry

     iteration #  8     ecut=   140.00 Ry     beta= 0.70
     Davidson diagonalization with overlap
     ethr =  7.77E-04,  avg # of iterations =  2.3

     negative rho (up, down):  1.219E-03 0.000E+00

     total cpu time spent up to now is       65.7 secs

     total energy              =    -449.66483593 Ry
     estimated scf accuracy    <       0.14330357 Ry

     iteration #  9     ecut=   140.00 Ry     beta= 0.70
     Davidson diagonalization with overlap
     ethr =  4.94E-04,  avg # of iterations =  4.5

     negative rho (up, down):  1.222E-03 0.000E+00

     total cpu time spent up to now is       74.1 secs

     total energy              =    -449.80204357 Ry
     estimated scf accuracy    <       1.77469257 Ry

     iteration # 10     ecut=   140.00 Ry     beta= 0.70
     Davidson diagonalization with overlap
     ethr =  4.94E-04,  avg # of iterations =  1.1

     negative rho (up, down):  1.452E-03 0.000E+00

     total cpu time spent up to now is       80.2 secs

     total energy              =    -449.97447841 Ry
     estimated scf accuracy    <       1.84132488 Ry

     iteration # 11     ecut=   140.00 Ry     beta= 0.70
     Davidson diagonalization with overlap
     ethr =  4.94E-04,  avg # of iterations =  2.7

     negative rho (up, down):  1.622E-03 0.000E+00

     total cpu time spent up to now is       87.1 secs

     total energy              =    -450.29485774 Ry
     estimated scf accuracy    <       8.45257095 Ry

     iteration # 12     ecut=   140.00 Ry     beta= 0.70
     Davidson diagonalization with overlap
     ethr =  4.94E-04,  avg # of iterations =  2.7

     negative rho (up, down):  1.114E-03 0.000E+00

     total cpu time spent up to now is       93.5 secs

     total energy              =    -449.38074706 Ry
     estimated scf accuracy    <      13.14557023 Ry

     iteration # 13     ecut=   140.00 Ry     beta= 0.70
     Davidson diagonalization with overlap
     ethr =  4.94E-04,  avg # of iterations =  3.8

     negative rho (up, down):  6.271E-04 0.000E+00

     total cpu time spent up to now is      101.4 secs

     total energy              =    -449.59697707 Ry
     estimated scf accuracy    <       0.53740907 Ry

     iteration # 14     ecut=   140.00 Ry     beta= 0.70
     Davidson diagonalization with overlap
     ethr =  4.94E-04,  avg # of iterations =  4.1

     negative rho (up, down):  7.416E-04 0.000E+00

     total cpu time spent up to now is      109.7 secs

     total energy              =    -449.69363495 Ry
     estimated scf accuracy    <       0.91622536 Ry

     iteration # 15     ecut=   140.00 Ry     beta= 0.70
     Davidson diagonalization with overlap
     ethr =  4.94E-04,  avg # of iterations =  1.4

     negative rho (up, down):  7.273E-04 0.000E+00

     total cpu time spent up to now is      115.7 secs

     total energy              =    -449.71779459 Ry
     estimated scf accuracy    <       0.11487776 Ry

     iteration # 16     ecut=   140.00 Ry     beta= 0.70
     Davidson diagonalization with overlap
     ethr =  3.96E-04,  avg # of iterations =  1.0

     negative rho (up, down):  6.875E-04 0.000E+00

     total cpu time spent up to now is      121.4 secs

     total energy              =    -449.71751423 Ry
     estimated scf accuracy    <       0.07816281 Ry

     iteration # 17     ecut=   140.00 Ry     beta= 0.70
     Davidson diagonalization with overlap
     ethr =  2.70E-04,  avg # of iterations =  1.0

     negative rho (up, down):  6.969E-04 0.000E+00

     total cpu time spent up to now is      127.2 secs

     total energy              =    -449.71721685 Ry
     estimated scf accuracy    <       0.04863892 Ry

     iteration # 18     ecut=   140.00 Ry     beta= 0.70
     Davidson diagonalization with overlap
     ethr =  1.68E-04,  avg # of iterations =  1.0

     negative rho (up, down):  6.967E-04 0.000E+00

     total cpu time spent up to now is      133.2 secs

     total energy              =    -449.71756827 Ry
     estimated scf accuracy    <       0.04182652 Ry

     iteration # 19     ecut=   140.00 Ry     beta= 0.70
     Davidson diagonalization with overlap
     ethr =  1.44E-04,  avg # of iterations =  1.0

     negative rho (up, down):  7.270E-04 0.000E+00

     total cpu time spent up to now is      139.2 secs

     total energy              =    -449.71666107 Ry
     estimated scf accuracy    <       0.04478769 Ry

     iteration # 20     ecut=   140.00 Ry     beta= 0.70
     Davidson diagonalization with overlap
     ethr =  1.44E-04,  avg # of iterations =  1.0

     negative rho (up, down):  7.669E-04 0.000E+00

     total cpu time spent up to now is      145.0 secs

     total energy              =    -449.71413435 Ry
     estimated scf accuracy    <       0.04714974 Ry

     iteration # 21     ecut=   140.00 Ry     beta= 0.70
     Davidson diagonalization with overlap
     ethr =  1.44E-04,  avg # of iterations =  1.0

     negative rho (up, down):  9.150E-04 0.000E+00

     total cpu time spent up to now is      150.7 secs

     total energy              =    -449.70961539 Ry
     estimated scf accuracy    <       0.02327942 Ry

     iteration # 22     ecut=   140.00 Ry     beta= 0.70
     Davidson diagonalization with overlap
     ethr =  8.03E-05,  avg # of iterations =  1.7

     negative rho (up, down):  9.248E-04 0.000E+00

     total cpu time spent up to now is      156.8 secs

     total energy              =    -449.71167914 Ry
     estimated scf accuracy    <       0.00021231 Ry

     iteration # 23     ecut=   140.00 Ry     beta= 0.70
     Davidson diagonalization with overlap
     ethr =  7.32E-07,  avg # of iterations =  5.6

     negative rho (up, down):  9.199E-04 0.000E+00

     total cpu time spent up to now is      167.3 secs

     total energy              =    -449.71184819 Ry
     estimated scf accuracy    <       0.00008427 Ry

     iteration # 24     ecut=   140.00 Ry     beta= 0.70
     Davidson diagonalization with overlap
     ethr =  2.91E-07,  avg # of iterations =  2.0

     negative rho (up, down):  9.246E-04 0.000E+00

     total cpu time spent up to now is      173.7 secs

     total energy              =    -449.71185884 Ry
     estimated scf accuracy    <       0.00000366 Ry

     iteration # 25     ecut=   140.00 Ry     beta= 0.70
     Davidson diagonalization with overlap
     ethr =  1.26E-08,  avg # of iterations =  4.0

     negative rho (up, down):  9.260E-04 0.000E+00

     total cpu time spent up to now is      181.6 secs

     total energy              =    -449.71185878 Ry
     estimated scf accuracy    <       0.00000899 Ry

     iteration # 26     ecut=   140.00 Ry     beta= 0.70
     Davidson diagonalization with overlap
     ethr =  1.26E-08,  avg # of iterations =  1.7

     negative rho (up, down):  9.253E-04 0.000E+00

     total cpu time spent up to now is      187.9 secs

     total energy              =    -449.71185949 Ry
     estimated scf accuracy    <       0.00000045 Ry

     iteration # 27     ecut=   140.00 Ry     beta= 0.70
     Davidson diagonalization with overlap
     ethr =  1.55E-09,  avg # of iterations =  2.4

     negative rho (up, down):  9.253E-04 0.000E+00

     total cpu time spent up to now is      194.7 secs

     total energy              =    -449.71185954 Ry
     estimated scf accuracy    <       0.00000006 Ry

     iteration # 28     ecut=   140.00 Ry     beta= 0.70
     Davidson diagonalization with overlap
     ethr =  1.99E-10,  avg # of iterations =  3.9

     negative rho (up, down):  9.251E-04 0.000E+00

     total cpu time spent up to now is      202.2 secs

     End of self-consistent calculation

     Number of k-points >= 100: set verbosity='high' to print the bands.

     the Fermi energy is    18.4086 ev

!    total energy              =    -449.71185955 Ry
     estimated scf accuracy    <          5.3E-09 Ry
     smearing contrib. (-TS)   =      -0.00010974 Ry
     internal energy E=F+TS    =    -449.71174981 Ry

     The total energy is F=E-TS. E is the sum of the following terms:
     one-electron contribution =    -149.99610192 Ry
     hartree contribution      =      92.26164399 Ry
     xc contribution           =     -53.86309877 Ry
     ewald contribution        =    -261.95970126 Ry
     one-center paw contrib.   =     -76.15449185 Ry

     convergence has been achieved in  28 iterations

     negative rho (up, down):  9.251E-04 0.000E+00

     Forces acting on atoms (cartesian axes, Ry/au):

     atom    1 type  2   force =    -0.00120418   -0.00120418   -0.00978112
     atom    2 type  1   force =     0.00191113    0.00191113    0.00154180
     atom    3 type  3   force =    -0.00070695   -0.00070695    0.00823932

     Total force =     0.013309     Total SCF correction =     0.000001


     Computing stress (Cartesian axis) and pressure


     negative rho (up, down):  9.251E-04 0.000E+00
          total   stress  (Ry/bohr**3)                   (kbar)     P=      283.24
   0.00073873   0.00000050  -0.00000059          108.67        0.07       -0.09
   0.00000050   0.00073873  -0.00000059            0.07      108.67       -0.09
  -0.00000059  -0.00000059   0.00429882           -0.09       -0.09      632.38


     BFGS Geometry Optimization
     Energy error            =      7.8E-02 Ry
     Gradient error          =      9.8E-03 Ry/Bohr
     Cell gradient error     =      6.3E+02 kbar

     number of scf cycles    =   1
     number of bfgs steps    =   0

     enthalpy           new  =    -449.7118595466 Ry

     new trust radius        =       0.2836051115 bohr
     new conv_thr            =       0.0000000100 Ry

     new unit-cell volume =    199.99380 a.u.^3 (    29.63602 Ang^3 )
     density =      5.86755 g/cm^3

CELL_PARAMETERS (alat=  5.55330037)
   1.024061697   0.000012559  -0.000014881
   0.000012559   1.024061697  -0.000014881
  -0.000014881  -0.000014881   1.113552754

ATOMIC_POSITIONS (crystal)
Fe               0.5025303442        0.5025303442        0.5009943045
Ti               0.0003422638        0.0003422638        0.0002761201
H                0.4998733920        0.4998733920        0.0014755754



     Writing config-only to output data dir ./outputs/TiFe.save/ :
     XML data file     NEW-OLD atomic charge density approx. for the potential
     New effective cutoffs (rho, wfc): 1079.12  134.96

     Check: negative core charge=   -0.000006

     negative rho (up, down):  9.388E-04 0.000E+00

     total cpu time spent up to now is      205.3 secs

     per-process dynamical memory:   208.2 Mb

     Self-consistent Calculation

     iteration #  1     ecut=   140.00 Ry     beta= 0.70
     Davidson diagonalization with overlap
     ethr =  1.00E-06,  avg # of iterations = 13.7

     negative rho (up, down):  7.449E-04 0.000E+00

     total cpu time spent up to now is      232.9 secs

     total energy              =    -449.74236348 Ry
     estimated scf accuracy    <       0.01018746 Ry

     iteration #  2     ecut=   140.00 Ry     beta= 0.70
     Davidson diagonalization with overlap
     ethr =  3.51E-05,  avg # of iterations =  5.1

     negative rho (up, down):  8.046E-04 0.000E+00

     total cpu time spent up to now is      242.7 secs

     total energy              =    -449.71174727 Ry
     estimated scf accuracy    <       0.68756558 Ry

     iteration #  3     ecut=   140.00 Ry     beta= 0.70
     Davidson diagonalization with overlap
     ethr =  3.51E-05,  avg # of iterations =  4.3

     negative rho (up, down):  8.459E-04 0.000E+00

     total cpu time spent up to now is      251.6 secs

     total energy              =    -449.74786412 Ry
     estimated scf accuracy    <       0.00522781 Ry

     iteration #  4     ecut=   140.00 Ry     beta= 0.70
     Davidson diagonalization with overlap
     ethr =  1.80E-05,  avg # of iterations =  2.3

     negative rho (up, down):  8.451E-04 0.000E+00

     total cpu time spent up to now is      258.4 secs

     total energy              =    -449.74878777 Ry
     estimated scf accuracy    <       0.00019082 Ry

     iteration #  5     ecut=   140.00 Ry     beta= 0.70
     Davidson diagonalization with overlap
     ethr =  6.58E-07,  avg # of iterations =  4.4

     negative rho (up, down):  8.323E-04 0.000E+00

     total cpu time spent up to now is      266.6 secs

     total energy              =    -449.74884166 Ry
     estimated scf accuracy    <       0.00005219 Ry

     iteration #  6     ecut=   140.00 Ry     beta= 0.70
     Davidson diagonalization with overlap
     ethr =  1.80E-07,  avg # of iterations =  3.0

     negative rho (up, down):  8.317E-04 0.000E+00

     total cpu time spent up to now is      273.9 secs

     total energy              =    -449.74885519 Ry
     estimated scf accuracy    <       0.00000240 Ry

     iteration #  7     ecut=   140.00 Ry     beta= 0.70
     Davidson diagonalization with overlap
     ethr =  8.28E-09,  avg # of iterations =  4.7

     negative rho (up, down):  8.322E-04 0.000E+00

     total cpu time spent up to now is      282.4 secs

     total energy              =    -449.74885603 Ry
     estimated scf accuracy    <       0.00000035 Ry

     iteration #  8     ecut=   140.00 Ry     beta= 0.70
     Davidson diagonalization with overlap
     ethr =  1.21E-09,  avg # of iterations =  2.8

     negative rho (up, down):  8.320E-04 0.000E+00

     total cpu time spent up to now is      289.6 secs

     total energy              =    -449.74885611 Ry
     estimated scf accuracy    <       0.00000002 Ry

     iteration #  9     ecut=   140.00 Ry     beta= 0.70
     Davidson diagonalization with overlap
     ethr =  5.77E-11,  avg # of iterations =  4.8

     negative rho (up, down):  8.320E-04 0.000E+00

     total cpu time spent up to now is      298.8 secs

     End of self-consistent calculation

     Number of k-points >= 100: set verbosity='high' to print the bands.

     the Fermi energy is    15.5397 ev

!    total energy              =    -449.74885611 Ry
     estimated scf accuracy    <          5.1E-09 Ry
     smearing contrib. (-TS)   =      -0.00010479 Ry
     internal energy E=F+TS    =    -449.74875132 Ry

     The total energy is F=E-TS. E is the sum of the following terms:
     one-electron contribution =    -167.38830563 Ry
     hartree contribution      =      97.99725273 Ry
     xc contribution           =     -53.56046160 Ry
     ewald contribution        =    -250.64585329 Ry
     one-center paw contrib.   =     -76.15138353 Ry

     convergence has been achieved in   9 iterations

     negative rho (up, down):  8.320E-04 0.000E+00

     Forces acting on atoms (cartesian axes, Ry/au):

     atom    1 type  2   force =    -0.00083787   -0.00083787    0.00048943
     atom    2 type  1   force =     0.00069889    0.00069889    0.00031831
     atom    3 type  3   force =     0.00013898    0.00013898   -0.00080774

     Total force =     0.001847     Total SCF correction =     0.000010


     Computing stress (Cartesian axis) and pressure


     negative rho (up, down):  8.320E-04 0.000E+00
          total   stress  (Ry/bohr**3)                   (kbar)     P=      -64.08
  -0.00068352   0.00000016   0.00000010         -100.55        0.02        0.01
   0.00000016  -0.00068352   0.00000010            0.02     -100.55        0.01
   0.00000010   0.00000010   0.00006032            0.01        0.01        8.87

     Energy error            =      3.7E-02 Ry
     Gradient error          =      8.4E-04 Ry/Bohr
     Cell gradient error     =      1.0E+02 kbar

     number of scf cycles    =   2
     number of bfgs steps    =   1

     enthalpy           old  =    -449.7118595466 Ry
     enthalpy           new  =    -449.7488561129 Ry

     CASE: enthalpy          _new < enthalpy          _old

     new trust radius        =       0.0484794466 bohr
     new conv_thr            =            1.0E-10 Ry

     new unit-cell volume =    194.46986 a.u.^3 (    28.81746 Ang^3 )
     density =      6.03422 g/cm^3

CELL_PARAMETERS (alat=  5.55330037)
   1.006508934   0.000017764  -0.000012916
   0.000017764   1.006508934  -0.000012916
  -0.000013406  -0.000013406   1.120891395

ATOMIC_POSITIONS (crystal)
Fe               0.5023723807        0.5023723807        0.5009927002
Ti               0.0004827881        0.0004827881        0.0003514654
H                0.4998908312        0.4998908312        0.0014018344



     Writing config-only to output data dir ./outputs/TiFe.save/ :
     XML data file     NEW-OLD atomic charge density approx. for the potential
     New effective cutoffs (rho, wfc): 1117.09  139.71

     Check: negative core charge=   -0.000006

     negative rho (up, down):  8.278E-04 0.000E+00

     total cpu time spent up to now is      302.1 secs

     per-process dynamical memory:   208.2 Mb

     Self-consistent Calculation

     iteration #  1     ecut=   140.00 Ry     beta= 0.70
     Davidson diagonalization with overlap
     ethr =  1.00E-06,  avg # of iterations =  8.0

     negative rho (up, down):  8.152E-04 0.000E+00

     total cpu time spent up to now is      319.1 secs

     total energy              =    -449.75075927 Ry
     estimated scf accuracy    <       0.00210413 Ry

     iteration #  2     ecut=   140.00 Ry     beta= 0.70
     Davidson diagonalization with overlap
     ethr =  7.26E-06,  avg # of iterations =  5.1

     negative rho (up, down):  8.455E-04 0.000E+00

     total cpu time spent up to now is      329.0 secs

     total energy              =    -449.73923844 Ry
     estimated scf accuracy    <       0.25963535 Ry

     iteration #  3     ecut=   140.00 Ry     beta= 0.70
     Davidson diagonalization with overlap
     ethr =  7.26E-06,  avg # of iterations =  4.8

     negative rho (up, down):  8.442E-04 0.000E+00

     total cpu time spent up to now is      338.4 secs

     total energy              =    -449.75232057 Ry
     estimated scf accuracy    <       0.00010358 Ry

     iteration #  4     ecut=   140.00 Ry     beta= 0.70
     Davidson diagonalization with overlap
     ethr =  3.57E-07,  avg # of iterations =  3.6

     negative rho (up, down):  8.470E-04 0.000E+00

     total cpu time spent up to now is      346.0 secs

     total energy              =    -449.75234562 Ry
     estimated scf accuracy    <       0.00001737 Ry

     iteration #  5     ecut=   140.00 Ry     beta= 0.70
     Davidson diagonalization with overlap
     ethr =  5.99E-08,  avg # of iterations =  2.9

     negative rho (up, down):  8.477E-04 0.000E+00

     total cpu time spent up to now is      353.1 secs

     total energy              =    -449.75234815 Ry
     estimated scf accuracy    <       0.00000523 Ry

     iteration #  6     ecut=   140.00 Ry     beta= 0.70
     Davidson diagonalization with overlap
     ethr =  1.80E-08,  avg # of iterations =  1.9

     negative rho (up, down):  8.481E-04 0.000E+00

     total cpu time spent up to now is      359.5 secs

     total energy              =    -449.75234861 Ry
     estimated scf accuracy    <       0.00000026 Ry

     iteration #  7     ecut=   140.00 Ry     beta= 0.70
     Davidson diagonalization with overlap
     ethr =  8.87E-10,  avg # of iterations =  4.6

     negative rho (up, down):  8.481E-04 0.000E+00

     total cpu time spent up to now is      368.8 secs

     total energy              =    -449.75234877 Ry
     estimated scf accuracy    <          5.0E-09 Ry

     iteration #  8     ecut=   140.00 Ry     beta= 0.70
     Davidson diagonalization with overlap
     ethr =  1.72E-11,  avg # of iterations =  5.2

     negative rho (up, down):  8.481E-04 0.000E+00

     total cpu time spent up to now is      378.3 secs

     total energy              =    -449.75234878 Ry
     estimated scf accuracy    <          1.1E-09 Ry

     iteration #  9     ecut=   140.00 Ry     beta= 0.70
     Davidson diagonalization with overlap
     ethr =  3.96E-12,  avg # of iterations =  2.5

     negative rho (up, down):  8.481E-04 0.000E+00

     total cpu time spent up to now is      385.5 secs

     End of self-consistent calculation

     Number of k-points >= 100: set verbosity='high' to print the bands.

     the Fermi energy is    15.9899 ev

!    total energy              =    -449.75234878 Ry
     estimated scf accuracy    <          2.2E-11 Ry
     smearing contrib. (-TS)   =      -0.00002669 Ry
     internal energy E=F+TS    =    -449.75232209 Ry

     The total energy is F=E-TS. E is the sum of the following terms:
     one-electron contribution =    -163.50190780 Ry
     hartree contribution      =      96.62262074 Ry
     xc contribution           =     -53.60536358 Ry
     ewald contribution        =    -253.11563764 Ry
     one-center paw contrib.   =     -76.15203380 Ry

     convergence has been achieved in   9 iterations

     negative rho (up, down):  8.481E-04 0.000E+00

     Forces acting on atoms (cartesian axes, Ry/au):

     atom    1 type  2   force =    -0.00083415   -0.00083415    0.00035042
     atom    2 type  1   force =     0.00059925    0.00059925    0.00029695
     atom    3 type  3   force =     0.00023490    0.00023490   -0.00064737

     Total force =     0.001688     Total SCF correction =     0.000001


     Computing stress (Cartesian axis) and pressure


     negative rho (up, down):  8.481E-04 0.000E+00
          total   stress  (Ry/bohr**3)                   (kbar)     P=      -23.84
  -0.00029339   0.00000009   0.00000010          -43.16        0.01        0.01
   0.00000009  -0.00029339   0.00000010            0.01      -43.16        0.01
   0.00000010   0.00000010   0.00010066            0.01        0.01       14.81

     Energy error            =      3.5E-03 Ry
     Gradient error          =      8.3E-04 Ry/Bohr
     Cell gradient error     =      4.3E+01 kbar

     number of scf cycles    =   3
     number of bfgs steps    =   2

     enthalpy           old  =    -449.7488561129 Ry
     enthalpy           new  =    -449.7523487789 Ry

     CASE: enthalpy          _new < enthalpy          _old

     new trust radius        =       0.0393922914 bohr
     new conv_thr            =            1.0E-10 Ry

     new unit-cell volume =    190.61775 a.u.^3 (    28.24664 Ang^3 )
     density =      6.15616 g/cm^3

CELL_PARAMETERS (alat=  5.55330037)
   0.992293089   0.000023139  -0.000008472
   0.000023139   0.992293089  -0.000008472
  -0.000009713  -0.000009713   1.130394180

ATOMIC_POSITIONS (crystal)
Fe               0.5020913515        0.5020913515        0.5010401979
Ti               0.0006934171        0.0006934171        0.0004715751
H                0.4999612314        0.4999612314        0.0012342270



     Writing config-only to output data dir ./outputs/TiFe.save/ :
     XML data file     NEW-OLD atomic charge density approx. for the potential
     New effective cutoffs (rho, wfc): 1149.34  143.75

     Check: negative core charge=   -0.000005

     negative rho (up, down):  8.440E-04 0.000E+00

     total cpu time spent up to now is      388.8 secs

     per-process dynamical memory:   208.2 Mb

     Self-consistent Calculation

     iteration #  1     ecut=   140.00 Ry     beta= 0.70
     Davidson diagonalization with overlap
     ethr =  1.00E-06,  avg # of iterations =  7.7

     negative rho (up, down):  8.240E-04 0.000E+00

     total cpu time spent up to now is      405.4 secs

     total energy              =    -449.75150866 Ry
     estimated scf accuracy    <       0.00209639 Ry

     iteration #  2     ecut=   140.00 Ry     beta= 0.70
     Davidson diagonalization with overlap
     ethr =  7.23E-06,  avg # of iterations =  5.1

     negative rho (up, down):  8.542E-04 0.000E+00

     total cpu time spent up to now is      415.4 secs

     total energy              =    -449.73996215 Ry
     estimated scf accuracy    <       0.26217017 Ry

     iteration #  3     ecut=   140.00 Ry     beta= 0.70
     Davidson diagonalization with overlap
     ethr =  7.23E-06,  avg # of iterations =  4.8

     negative rho (up, down):  8.559E-04 0.000E+00

     total cpu time spent up to now is      424.8 secs

     total energy              =    -449.75310925 Ry
     estimated scf accuracy    <       0.00003398 Ry

     iteration #  4     ecut=   140.00 Ry     beta= 0.70
     Davidson diagonalization with overlap
     ethr =  1.17E-07,  avg # of iterations =  4.7

     negative rho (up, down):  8.574E-04 0.000E+00

     total cpu time spent up to now is      433.8 secs

     total energy              =    -449.75312878 Ry
     estimated scf accuracy    <       0.00001467 Ry

     iteration #  5     ecut=   140.00 Ry     beta= 0.70
     Davidson diagonalization with overlap
     ethr =  5.06E-08,  avg # of iterations =  1.4

     negative rho (up, down):  8.572E-04 0.000E+00

     total cpu time spent up to now is      439.9 secs

     total energy              =    -449.75312946 Ry
     estimated scf accuracy    <       0.00000243 Ry

     iteration #  6     ecut=   140.00 Ry     beta= 0.70
     Davidson diagonalization with overlap
     ethr =  8.37E-09,  avg # of iterations =  1.9

     negative rho (up, down):  8.576E-04 0.000E+00

     total cpu time spent up to now is      446.3 secs

     total energy              =    -449.75312967 Ry
     estimated scf accuracy    <       0.00000016 Ry

     iteration #  7     ecut=   140.00 Ry     beta= 0.70
     Davidson diagonalization with overlap
     ethr =  5.54E-10,  avg # of iterations =  4.5

     negative rho (up, down):  8.575E-04 0.000E+00

     total cpu time spent up to now is      454.9 secs

     total energy              =    -449.75312973 Ry
     estimated scf accuracy    <          7.9E-09 Ry

     iteration #  8     ecut=   140.00 Ry     beta= 0.70
     Davidson diagonalization with overlap
     ethr =  2.73E-11,  avg # of iterations =  3.9

     negative rho (up, down):  8.575E-04 0.000E+00

     total cpu time spent up to now is      462.9 secs

     total energy              =    -449.75312973 Ry
     estimated scf accuracy    <          2.4E-10 Ry

     iteration #  9     ecut=   140.00 Ry     beta= 0.70
     Davidson diagonalization with overlap
     ethr =  8.44E-13,  avg # of iterations =  4.9

     negative rho (up, down):  8.575E-04 0.000E+00

     total cpu time spent up to now is      472.3 secs

     total energy              =    -449.75312973 Ry
     estimated scf accuracy    <          1.2E-10 Ry

     iteration # 10     ecut=   140.00 Ry     beta= 0.70
     Davidson diagonalization with overlap
     ethr =  4.25E-13,  avg # of iterations =  2.0

     negative rho (up, down):  8.575E-04 0.000E+00

     total cpu time spent up to now is      479.0 secs

     End of self-consistent calculation

     Number of k-points >= 100: set verbosity='high' to print the bands.

     the Fermi energy is    16.3116 ev

!    total energy              =    -449.75312973 Ry
     estimated scf accuracy    <          3.8E-13 Ry
     smearing contrib. (-TS)   =      -0.00003978 Ry
     internal energy E=F+TS    =    -449.75308995 Ry

     The total energy is F=E-TS. E is the sum of the following terms:
     one-electron contribution =    -160.67521653 Ry
     hartree contribution      =      95.62473649 Ry
     xc contribution           =     -53.63766844 Ry
     ewald contribution        =    -254.91241698 Ry
     one-center paw contrib.   =     -76.15252448 Ry

     convergence has been achieved in  10 iterations

     negative rho (up, down):  8.575E-04 0.000E+00

     Forces acting on atoms (cartesian axes, Ry/au):

     atom    1 type  2   force =    -0.00066127   -0.00066127    0.00006317
     atom    2 type  1   force =     0.00033135    0.00033135    0.00024120
     atom    3 type  3   force =     0.00032993    0.00032993   -0.00030437

     Total force =     0.001211     Total SCF correction =     0.000000


     Computing stress (Cartesian axis) and pressure


     negative rho (up, down):  8.575E-04 0.000E+00
          total   stress  (Ry/bohr**3)                   (kbar)     P=        8.28
   0.00005883   0.00000004   0.00000006            8.65        0.01        0.01
   0.00000004   0.00005883   0.00000006            0.01        8.65        0.01
   0.00000006   0.00000006   0.00005114            0.01        0.01        7.52

     Energy error            =      7.8E-04 Ry
     Gradient error          =      6.6E-04 Ry/Bohr
     Cell gradient error     =      8.7E+00 kbar

     number of scf cycles    =   4
     number of bfgs steps    =   3

     enthalpy           old  =    -449.7523487789 Ry
     enthalpy           new  =    -449.7531297348 Ry

     CASE: enthalpy          _new < enthalpy          _old

     new trust radius        =       0.0049010035 bohr
     new conv_thr            =            1.0E-10 Ry

     new unit-cell volume =    191.35837 a.u.^3 (    28.35638 Ang^3 )
     density =      6.13233 g/cm^3

CELL_PARAMETERS (alat=  5.55330037)
   0.994054307   0.000023899  -0.000007010
   0.000023899   0.994054307  -0.000007010
  -0.000008416  -0.000008416   1.130768591

ATOMIC_POSITIONS (crystal)
Fe               0.5020002767        0.5020002767        0.5010552145
Ti               0.0007358405        0.0007358405        0.0005087730
H                0.5000098828        0.5000098828        0.0011820125



     Writing config-only to output data dir ./outputs/TiFe.save/ :
     XML data file     NEW-OLD atomic charge density approx. for the potential
     New effective cutoffs (rho, wfc): 1145.28  143.24

     Check: negative core charge=   -0.000005

     negative rho (up, down):  8.596E-04 0.000E+00

     total cpu time spent up to now is      482.1 secs

     per-process dynamical memory:   208.2 Mb

     Self-consistent Calculation

     iteration #  1     ecut=   140.00 Ry     beta= 0.70
     Davidson diagonalization with overlap
     ethr =  1.00E-06,  avg # of iterations =  3.0

     Threshold (ethr) on eigenvalues was too large:
     Diagonalizing with lowered threshold

     Davidson diagonalization with overlap
     ethr =  3.50E-08,  avg # of iterations =  5.0

     negative rho (up, down):  8.591E-04 0.000E+00

     total cpu time spent up to now is      501.1 secs

     total energy              =    -449.75314188 Ry
     estimated scf accuracy    <       0.00001605 Ry

     iteration #  2     ecut=   140.00 Ry     beta= 0.70
     Davidson diagonalization with overlap
     ethr =  5.53E-08,  avg # of iterations =  4.1

     negative rho (up, down):  8.564E-04 0.000E+00

     total cpu time spent up to now is      509.6 secs

     total energy              =    -449.75305440 Ry
     estimated scf accuracy    <       0.00190058 Ry

     iteration #  3     ecut=   140.00 Ry     beta= 0.70
     Davidson diagonalization with overlap
     ethr =  5.53E-08,  avg # of iterations =  4.2

     negative rho (up, down):  8.571E-04 0.000E+00

     total cpu time spent up to now is      517.7 secs

     total energy              =    -449.75315356 Ry
     estimated scf accuracy    <       0.00000297 Ry

     iteration #  4     ecut=   140.00 Ry     beta= 0.70
     Davidson diagonalization with overlap
     ethr =  1.03E-08,  avg # of iterations =  2.0

     negative rho (up, down):  8.569E-04 0.000E+00

     total cpu time spent up to now is      524.6 secs

     total energy              =    -449.75315400 Ry
     estimated scf accuracy    <       0.00000035 Ry

     iteration #  5     ecut=   140.00 Ry     beta= 0.70
     Davidson diagonalization with overlap
     ethr =  1.20E-09,  avg # of iterations =  3.4

     negative rho (up, down):  8.567E-04 0.000E+00

     total cpu time spent up to now is      531.8 secs

     total energy              =    -449.75315404 Ry
     estimated scf accuracy    <       0.00000005 Ry

     iteration #  6     ecut=   140.00 Ry     beta= 0.70
     Davidson diagonalization with overlap
     ethr =  1.66E-10,  avg # of iterations =  4.2

     negative rho (up, down):  8.567E-04 0.000E+00

     total cpu time spent up to now is      539.6 secs

     total energy              =    -449.75315404 Ry
     estimated scf accuracy    <          4.8E-09 Ry

     iteration #  7     ecut=   140.00 Ry     beta= 0.70
     Davidson diagonalization with overlap
     ethr =  1.64E-11,  avg # of iterations =  3.5

     negative rho (up, down):  8.567E-04 0.000E+00

     total cpu time spent up to now is      547.6 secs

     total energy              =    -449.75315404 Ry
     estimated scf accuracy    <          8.8E-10 Ry

     iteration #  8     ecut=   140.00 Ry     beta= 0.70
     Davidson diagonalization with overlap
     ethr =  3.02E-12,  avg # of iterations =  3.1

     negative rho (up, down):  8.567E-04 0.000E+00

     total cpu time spent up to now is      555.1 secs

     End of self-consistent calculation

     Number of k-points >= 100: set verbosity='high' to print the bands.

     the Fermi energy is    16.2409 ev

!    total energy              =    -449.75315404 Ry
     estimated scf accuracy    <          1.4E-11 Ry
     smearing contrib. (-TS)   =      -0.00003901 Ry
     internal energy E=F+TS    =    -449.75311503 Ry

     The total energy is F=E-TS. E is the sum of the following terms:
     one-electron contribution =    -161.19886737 Ry
     hartree contribution      =      95.80582199 Ry
     xc contribution           =     -53.63069755 Ry
     ewald contribution        =    -254.57694358 Ry
     one-center paw contrib.   =     -76.15242851 Ry

     convergence has been achieved in   8 iterations

     negative rho (up, down):  8.567E-04 0.000E+00

     Forces acting on atoms (cartesian axes, Ry/au):

     atom    1 type  2   force =    -0.00059622   -0.00059622   -0.00000806
     atom    2 type  1   force =     0.00028081    0.00028081    0.00022376
     atom    3 type  3   force =     0.00031541    0.00031541   -0.00021570

     Total force =     0.001079     Total SCF correction =     0.000002


     Computing stress (Cartesian axis) and pressure


     negative rho (up, down):  8.567E-04 0.000E+00
          total   stress  (Ry/bohr**3)                   (kbar)     P=        1.13
   0.00000349   0.00000004   0.00000005            0.51        0.01        0.01
   0.00000004   0.00000349   0.00000005            0.01        0.51        0.01
   0.00000005   0.00000005   0.00001600            0.01        0.01        2.35

     Energy error            =      2.4E-05 Ry
     Gradient error          =      6.0E-04 Ry/Bohr
     Cell gradient error     =      2.4E+00 kbar

     number of scf cycles    =   5
     number of bfgs steps    =   4

     enthalpy           old  =    -449.7531297348 Ry
     enthalpy           new  =    -449.7531540438 Ry

     CASE: enthalpy          _new < enthalpy          _old

     new trust radius        =       0.0012948632 bohr
     new conv_thr            =            1.0E-10 Ry

     new unit-cell volume =    191.46797 a.u.^3 (    28.37263 Ang^3 )
     density =      6.12882 g/cm^3

CELL_PARAMETERS (alat=  5.55330037)
   0.994106336   0.000025113  -0.000005307
   0.000025113   0.994106336  -0.000005307
  -0.000006923  -0.000006923   1.131297813

ATOMIC_POSITIONS (crystal)
Fe               0.5018756613        0.5018756613        0.5010545745
Ti               0.0007951662        0.0007951662        0.0005619112
H                0.5000751725        0.5000751725        0.0011295143



     Writing config-only to output data dir ./outputs/TiFe.save/ :
     XML data file     NEW-OLD atomic charge density approx. for the potential
     New effective cutoffs (rho, wfc): 1145.16  143.22

     Check: negative core charge=   -0.000005

     negative rho (up, down):  8.578E-04 0.000E+00

     total cpu time spent up to now is      558.4 secs

     per-process dynamical memory:   208.4 Mb

     Self-consistent Calculation

     iteration #  1     ecut=   140.00 Ry     beta= 0.70
     Davidson diagonalization with overlap
     ethr =  1.00E-06,  avg # of iterations =  2.7

     Threshold (ethr) on eigenvalues was too large:
     Diagonalizing with lowered threshold

     Davidson diagonalization with overlap
     ethr =  3.27E-09,  avg # of iterations =  5.7

     negative rho (up, down):  8.568E-04 0.000E+00

     total cpu time spent up to now is      578.6 secs

     total energy              =    -449.75315589 Ry
     estimated scf accuracy    <       0.00000063 Ry

     iteration #  2     ecut=   140.00 Ry     beta= 0.70
     Davidson diagonalization with overlap
     ethr =  2.16E-09,  avg # of iterations =  4.2

     negative rho (up, down):  8.572E-04 0.000E+00

     total cpu time spent up to now is      587.0 secs

     total energy              =    -449.75315397 Ry
     estimated scf accuracy    <       0.00003939 Ry

     iteration #  3     ecut=   140.00 Ry     beta= 0.70
     Davidson diagonalization with overlap
     ethr =  2.16E-09,  avg # of iterations =  3.8

     negative rho (up, down):  8.574E-04 0.000E+00

     total cpu time spent up to now is      594.5 secs

     total energy              =    -449.75315613 Ry
     estimated scf accuracy    <       0.00000029 Ry

     iteration #  4     ecut=   140.00 Ry     beta= 0.70
     Davidson diagonalization with overlap
     ethr =  9.89E-10,  avg # of iterations =  2.0

     negative rho (up, down):  8.573E-04 0.000E+00

     total cpu time spent up to now is      601.2 secs

     total energy              =    -449.75315616 Ry
     estimated scf accuracy    <       0.00000001 Ry

     iteration #  5     ecut=   140.00 Ry     beta= 0.70
     Davidson diagonalization with overlap
     ethr =  4.28E-11,  avg # of iterations =  3.4

     negative rho (up, down):  8.573E-04 0.000E+00

     total cpu time spent up to now is      608.9 secs

     total energy              =    -449.75315616 Ry
     estimated scf accuracy    <          4.6E-10 Ry

     iteration #  6     ecut=   140.00 Ry     beta= 0.70
     Davidson diagonalization with overlap
     ethr =  1.59E-12,  avg # of iterations =  4.7

     negative rho (up, down):  8.573E-04 0.000E+00

     total cpu time spent up to now is      618.5 secs

     End of self-consistent calculation

     Number of k-points >= 100: set verbosity='high' to print the bands.

     the Fermi energy is    16.2291 ev

!    total energy              =    -449.75315616 Ry
     estimated scf accuracy    <          2.8E-11 Ry
     smearing contrib. (-TS)   =      -0.00004042 Ry
     internal energy E=F+TS    =    -449.75311575 Ry

     The total energy is F=E-TS. E is the sum of the following terms:
     one-electron contribution =    -161.27105096 Ry
     hartree contribution      =      95.83014220 Ry
     xc contribution           =     -53.62955679 Ry
     ewald contribution        =    -254.53023634 Ry
     one-center paw contrib.   =     -76.15241386 Ry

     convergence has been achieved in   6 iterations

     negative rho (up, down):  8.573E-04 0.000E+00

     Forces acting on atoms (cartesian axes, Ry/au):

     atom    1 type  2   force =    -0.00052054   -0.00052054   -0.00005240
     atom    2 type  1   force =     0.00021342    0.00021342    0.00019649
     atom    3 type  3   force =     0.00030712    0.00030712   -0.00014410

     Total force =     0.000940     Total SCF correction =     0.000012


     Computing stress (Cartesian axis) and pressure


     negative rho (up, down):  8.573E-04 0.000E+00
          total   stress  (Ry/bohr**3)                   (kbar)     P=       -0.02
  -0.00000123   0.00000003   0.00000004           -0.18        0.00        0.01
   0.00000003  -0.00000123   0.00000004            0.00       -0.18        0.01
   0.00000004   0.00000004   0.00000214            0.01        0.01        0.31

     Energy error            =      2.1E-06 Ry
     Gradient error          =      5.2E-04 Ry/Bohr
     Cell gradient error     =      3.1E-01 kbar

     bfgs converged in   6 scf cycles and   5 bfgs steps
     (criteria: energy <  1.0E-04 Ry, force <  1.0E-03 Ry/Bohr, cell <  5.0E-01 kbar)

     End of BFGS Geometry Optimization

     Final enthalpy           =    -449.7531561622 Ry

     File ./outputs/TiFe.bfgs deleted, as requested
Begin final coordinates
     new unit-cell volume =    191.46797 a.u.^3 (    28.37263 Ang^3 )
     density =      6.12882 g/cm^3

CELL_PARAMETERS (alat=  5.55330037)
   0.994106336   0.000025113  -0.000005307
   0.000025113   0.994106336  -0.000005307
  -0.000006923  -0.000006923   1.131297813

ATOMIC_POSITIONS (crystal)
Fe               0.5018756613        0.5018756613        0.5010545745
Ti               0.0007951662        0.0007951662        0.0005619112
H                0.5000751725        0.5000751725        0.0011295143
End final coordinates



     Writing config-only to output data dir ./outputs/TiFe.save/ :
     XML data file
     Final scf calculation at the relaxed structure.
     The G-vectors are recalculated for the final unit cell
     Results may differ from those at the preceding step.

     Parallelization info
     --------------------
     sticks:   dense  smooth     PW     G-vecs:    dense   smooth      PW
     Min         338     169     48                15158     5361     824
     Max         339     170     49                15165     5368     827
     Sum        2709    1353    385               121295    42903    6601

     Using Slab Decomposition



     bravais-lattice index     =            0
     lattice parameter (alat)  =       5.5533  a.u.
     unit-cell volume          =     191.4680 (a.u.)^3
     number of atoms/cell      =            3
     number of atomic types    =            3
     number of electrons       =        29.00
     number of Kohn-Sham states=           19
     kinetic-energy cutoff     =     140.0000  Ry
     charge density cutoff     =    1120.0000  Ry
     scf convergence threshold =      1.0E-10
     mixing beta               =       0.7000
     number of iterations used =            8  plain     mixing
     press convergence thresh. =      5.0E-01
     Exchange-correlation= PBE
                           (   1   4   3   4   0   0   0)

     celldm(1)=   5.553300  celldm(2)=   0.000000  celldm(3)=   0.000000
     celldm(4)=   0.000000  celldm(5)=   0.000000  celldm(6)=   0.000000

     crystal axes: (cart. coord. in units of alat)
               a(1) = (   0.994106   0.000025  -0.000005 )  
               a(2) = (   0.000025   0.994106  -0.000005 )  
               a(3) = (  -0.000007  -0.000007   1.131298 )  

     reciprocal axes: (cart. coord. in units 2 pi/alat)
               b(1) = (  1.005929 -0.000025  0.000006 )  
               b(2) = ( -0.000025  1.005929  0.000006 )  
               b(3) = (  0.000005  0.000005  0.883941 )  


     PseudoPot. # 1 for Ti read from file:
     /vscmnt/antwerpen_storage_home/_user_antwerpen/211/vsc21140/pseudos/ti_pbe_v1.4.uspp.F.UPF
     MD5 check sum: 88a00a6731bd790ddea75d31a80cb452
     Pseudo is Ultrasoft + core correction, Zval = 12.0
     Generated by new atomic code, or converted to UPF format
     Using radial grid of  851 points,  6 beta functions with: 
                l(1) =   0
                l(2) =   0
                l(3) =   1
                l(4) =   1
                l(5) =   2
                l(6) =   2
     Q(r) pseudized with  6 coefficients,  rinner =    1.000   1.000   1.000
                                                       1.000   1.000

     PseudoPot. # 2 for Fe read from file:
     /vscmnt/antwerpen_storage_home/_user_antwerpen/211/vsc21140/pseudos/Fe.pbe-spn-kjpaw_psl.0.2.1.UPF
     MD5 check sum: e86618425769142926afa95317d90200
     Pseudo is Projector augmented-wave + core cor, Zval = 16.0
     Generated using "atomic" code by A. Dal Corso  v.5.0.99 svn rev. 10869
     Shape of augmentation charge: PSQ
     Using radial grid of 1191 points,  6 beta functions with: 
                l(1) =   0
                l(2) =   0
                l(3) =   1
                l(4) =   1
                l(5) =   2
                l(6) =   2
     Q(r) pseudized with 0 coefficients 


     PseudoPot. # 3 for H  read from file:
     /vscmnt/antwerpen_storage_home/_user_antwerpen/211/vsc21140/pseudos/H.pbe-rrkjus_psl.1.0.0.UPF
     MD5 check sum: f52b6d4d1c606e5624b1dc7b2218f220
     Pseudo is Ultrasoft, Zval =  1.0
     Generated using "atomic" code by A. Dal Corso  v.5.1
     Using radial grid of  929 points,  2 beta functions with: 
                l(1) =   0
                l(2) =   0
     Q(r) pseudized with 0 coefficients 


     atomic species   valence    mass     pseudopotential
     Ti               12.00    47.86700     Ti( 1.00)
     Fe               16.00    55.84500     Fe( 1.00)
     H                 1.00     1.00750     H ( 1.00)

      2 Sym. Ops. (no inversion) found



   Cartesian axes

     site n.     atom                  positions (alat units)
         1        Fe     tau(   1) = (   0.4989269   0.4989269   0.5668366  )
         2        Ti     tau(   2) = (   0.0007905   0.0007905   0.0006357  )
         3        H      tau(   3) = (   0.4971404   0.4971404   0.0012725  )

     number of k points=   366  Marzari-Vanderbilt smearing, width (Ry)=  0.0050

     Number of k-points >= 100: set verbosity='high' to print them.

     Dense  grid:   121295 G-vectors     FFT dimensions: (  60,  60,  72)

     Smooth grid:    42903 G-vectors     FFT dimensions: (  45,  45,  48)

     Estimated max dynamical RAM per process >     143.88 MB

     Estimated total dynamical RAM >       1.12 GB

     Check: negative core charge=   -0.000005

     Initial potential from superposition of free atoms

     starting charge      27.9995, renormalised to      29.0000

     negative rho (up, down):  1.435E-03 0.000E+00
     Starting wfcs are   24 randomized atomic wfcs
     Checking if some PAW data can be deallocated... 

     total cpu time spent up to now is      624.8 secs

     per-process dynamical memory:   210.4 Mb

     Self-consistent Calculation

     iteration #  1     ecut=   140.00 Ry     beta= 0.70
     Davidson diagonalization with overlap
     c_bands:  2 eigenvalues not converged
     c_bands:  1 eigenvalues not converged
     c_bands:  2 eigenvalues not converged
     c_bands:  1 eigenvalues not converged
     c_bands:  1 eigenvalues not converged
     c_bands:  1 eigenvalues not converged
     c_bands:  1 eigenvalues not converged
     c_bands:  1 eigenvalues not converged
     c_bands:  1 eigenvalues not converged
     c_bands:  1 eigenvalues not converged
     c_bands:  1 eigenvalues not converged
     c_bands:  1 eigenvalues not converged
     c_bands:  1 eigenvalues not converged
     c_bands:  1 eigenvalues not converged
     c_bands:  1 eigenvalues not converged
     c_bands:  1 eigenvalues not converged
     c_bands:  1 eigenvalues not converged
     c_bands:  1 eigenvalues not converged
     c_bands:  1 eigenvalues not converged
     c_bands:  1 eigenvalues not converged
     c_bands:  1 eigenvalues not converged
     c_bands:  1 eigenvalues not converged
     c_bands:  1 eigenvalues not converged
     c_bands:  1 eigenvalues not converged
     c_bands:  1 eigenvalues not converged
     c_bands:  1 eigenvalues not converged
     c_bands:  1 eigenvalues not converged
     c_bands:  1 eigenvalues not converged
     c_bands:  1 eigenvalues not converged
     c_bands:  1 eigenvalues not converged
     c_bands:  1 eigenvalues not converged
     c_bands:  1 eigenvalues not converged
     c_bands:  1 eigenvalues not converged
     c_bands:  1 eigenvalues not converged
     c_bands:  1 eigenvalues not converged
     c_bands:  1 eigenvalues not converged
     c_bands:  1 eigenvalues not converged
     c_bands:  1 eigenvalues not converged
     c_bands:  1 eigenvalues not converged
     c_bands:  1 eigenvalues not converged
     c_bands:  1 eigenvalues not converged
     c_bands:  1 eigenvalues not converged
     ethr =  1.00E-06,  avg # of iterations = 16.7

     negative rho (up, down):  1.154E-04 0.000E+00

     total cpu time spent up to now is      659.8 secs

     total energy              =    -435.07688599 Ry
     estimated scf accuracy    <      18.55806297 Ry

     iteration #  2     ecut=   140.00 Ry     beta= 0.70
     Davidson diagonalization with overlap
     ethr =  1.00E-02,  avg # of iterations =  6.4

     negative rho (up, down):  3.655E-05 0.000E+00

     total cpu time spent up to now is      673.4 secs

     total energy              =    -449.06600884 Ry
     estimated scf accuracy    <      72.81714761 Ry

     iteration #  3     ecut=   140.00 Ry     beta= 0.70
     Davidson diagonalization with overlap
     ethr =  1.00E-02,  avg # of iterations =  3.2

     negative rho (up, down):  2.097E-04 0.000E+00

     total cpu time spent up to now is      682.2 secs

     total energy              =    -450.22864949 Ry
     estimated scf accuracy    <      17.63674672 Ry

     iteration #  4     ecut=   140.00 Ry     beta= 0.70
     Davidson diagonalization with overlap
     ethr =  1.00E-02,  avg # of iterations =  2.2

     negative rho (up, down):  2.714E-04 0.000E+00

     total cpu time spent up to now is      689.3 secs

     total energy              =    -450.42877630 Ry
     estimated scf accuracy    <       6.71053739 Ry

     iteration #  5     ecut=   140.00 Ry     beta= 0.70
     Davidson diagonalization with overlap
     ethr =  1.00E-02,  avg # of iterations =  1.1

     negative rho (up, down):  8.765E-04 0.000E+00

     total cpu time spent up to now is      695.4 secs

     total energy              =    -449.46466464 Ry
     estimated scf accuracy    <       5.56922088 Ry

     iteration #  6     ecut=   140.00 Ry     beta= 0.70
     Davidson diagonalization with overlap
     ethr =  1.00E-02,  avg # of iterations =  2.5

     negative rho (up, down):  9.015E-04 0.000E+00

     total cpu time spent up to now is      702.0 secs

     total energy              =    -449.72594391 Ry
     estimated scf accuracy    <       0.27194425 Ry

     iteration #  7     ecut=   140.00 Ry     beta= 0.70
     Davidson diagonalization with overlap
     ethr =  9.38E-04,  avg # of iterations =  4.1

     negative rho (up, down):  7.105E-04 0.000E+00

     total cpu time spent up to now is      709.6 secs

     total energy              =    -449.77773064 Ry
     estimated scf accuracy    <       0.07068707 Ry

     iteration #  8     ecut=   140.00 Ry     beta= 0.70
     Davidson diagonalization with overlap
     ethr =  2.44E-04,  avg # of iterations =  2.6

     negative rho (up, down):  6.832E-04 0.000E+00

     total cpu time spent up to now is      716.6 secs

     total energy              =    -449.83297761 Ry
     estimated scf accuracy    <       0.93589827 Ry

     iteration #  9     ecut=   140.00 Ry     beta= 0.70
     Davidson diagonalization with overlap
     ethr =  2.44E-04,  avg # of iterations =  1.0

     negative rho (up, down):  5.526E-04 0.000E+00

     total cpu time spent up to now is      722.5 secs

     total energy              =    -449.85537351 Ry
     estimated scf accuracy    <       1.18876334 Ry

     iteration # 10     ecut=   140.00 Ry     beta= 0.70
     Davidson diagonalization with overlap
     ethr =  2.44E-04,  avg # of iterations =  2.0

     negative rho (up, down):  6.563E-04 0.000E+00

     total cpu time spent up to now is      729.0 secs

     total energy              =    -449.79519341 Ry
     estimated scf accuracy    <       1.20646652 Ry

     iteration # 11     ecut=   140.00 Ry     beta= 0.70
     Davidson diagonalization with overlap
     ethr =  2.44E-04,  avg # of iterations =  1.1

     negative rho (up, down):  6.604E-04 0.000E+00

     total cpu time spent up to now is      734.8 secs

     total energy              =    -449.82189326 Ry
     estimated scf accuracy    <       0.62478533 Ry

     iteration # 12     ecut=   140.00 Ry     beta= 0.70
     Davidson diagonalization with overlap
     ethr =  2.44E-04,  avg # of iterations =  1.0

     negative rho (up, down):  7.496E-04 0.000E+00

     total cpu time spent up to now is      740.7 secs

     total energy              =    -449.76364754 Ry
     estimated scf accuracy    <       0.98144673 Ry

     iteration # 13     ecut=   140.00 Ry     beta= 0.70
     Davidson diagonalization with overlap
     ethr =  2.44E-04,  avg # of iterations =  1.3

     negative rho (up, down):  7.208E-04 0.000E+00

     total cpu time spent up to now is      746.8 secs

     total energy              =    -449.78096414 Ry
     estimated scf accuracy    <       0.31235198 Ry

     iteration # 14     ecut=   140.00 Ry     beta= 0.70
     Davidson diagonalization with overlap
     ethr =  2.44E-04,  avg # of iterations =  1.0

     negative rho (up, down):  7.977E-04 0.000E+00

     total cpu time spent up to now is      752.7 secs

     total energy              =    -449.76202195 Ry
     estimated scf accuracy    <       0.36822433 Ry

     iteration # 15     ecut=   140.00 Ry     beta= 0.70
     Davidson diagonalization with overlap
     ethr =  2.44E-04,  avg # of iterations =  1.1

     negative rho (up, down):  9.662E-04 0.000E+00

     total cpu time spent up to now is      758.6 secs

     total energy              =    -449.73760453 Ry
     estimated scf accuracy    <       0.16936192 Ry

     iteration # 16     ecut=   140.00 Ry     beta= 0.70
     Davidson diagonalization with overlap
     ethr =  2.44E-04,  avg # of iterations =  2.3

     negative rho (up, down):  9.436E-04 0.000E+00

     total cpu time spent up to now is      765.3 secs

     total energy              =    -449.75301783 Ry
     estimated scf accuracy    <       0.01160360 Ry

     iteration # 17     ecut=   140.00 Ry     beta= 0.70
     Davidson diagonalization with overlap
     ethr =  4.00E-05,  avg # of iterations =  2.0

     negative rho (up, down):  9.266E-04 0.000E+00

     total cpu time spent up to now is      771.6 secs

     total energy              =    -449.75305784 Ry
     estimated scf accuracy    <       0.00324693 Ry

     iteration # 18     ecut=   140.00 Ry     beta= 0.70
     Davidson diagonalization with overlap
     ethr =  1.12E-05,  avg # of iterations =  1.9

     negative rho (up, down):  9.309E-04 0.000E+00

     total cpu time spent up to now is      778.1 secs

     total energy              =    -449.75324306 Ry
     estimated scf accuracy    <       0.00040916 Ry

     iteration # 19     ecut=   140.00 Ry     beta= 0.70
     Davidson diagonalization with overlap
     ethr =  1.41E-06,  avg # of iterations =  3.7

     negative rho (up, down):  9.227E-04 0.000E+00

     total cpu time spent up to now is      785.4 secs

     total energy              =    -449.75323838 Ry
     estimated scf accuracy    <       0.00027138 Ry

     iteration # 20     ecut=   140.00 Ry     beta= 0.70
     Davidson diagonalization with overlap
     ethr =  9.36E-07,  avg # of iterations =  1.8

     negative rho (up, down):  9.290E-04 0.000E+00

     total cpu time spent up to now is      791.7 secs

     total energy              =    -449.75326875 Ry
     estimated scf accuracy    <       0.00003869 Ry

     iteration # 21     ecut=   140.00 Ry     beta= 0.70
     Davidson diagonalization with overlap
     ethr =  1.33E-07,  avg # of iterations =  3.1

     negative rho (up, down):  9.287E-04 0.000E+00

     total cpu time spent up to now is      799.2 secs

     total energy              =    -449.75327937 Ry
     estimated scf accuracy    <       0.00000838 Ry

     iteration # 22     ecut=   140.00 Ry     beta= 0.70
     Davidson diagonalization with overlap
     ethr =  2.89E-08,  avg # of iterations =  2.7

     negative rho (up, down):  9.276E-04 0.000E+00

     total cpu time spent up to now is      806.0 secs

     total energy              =    -449.75327839 Ry
     estimated scf accuracy    <       0.00001442 Ry

     iteration # 23     ecut=   140.00 Ry     beta= 0.70
     Davidson diagonalization with overlap
     ethr =  2.89E-08,  avg # of iterations =  1.2

     negative rho (up, down):  9.273E-04 0.000E+00

     total cpu time spent up to now is      812.0 secs

     total energy              =    -449.75327879 Ry
     estimated scf accuracy    <       0.00000089 Ry

     iteration # 24     ecut=   140.00 Ry     beta= 0.70
     Davidson diagonalization with overlap
     ethr =  3.07E-09,  avg # of iterations =  3.8

     negative rho (up, down):  9.273E-04 0.000E+00

     total cpu time spent up to now is      819.6 secs

     total energy              =    -449.75327903 Ry
     estimated scf accuracy    <       0.00000005 Ry

     iteration # 25     ecut=   140.00 Ry     beta= 0.70
     Davidson diagonalization with overlap
     ethr =  1.71E-10,  avg # of iterations =  4.3

     negative rho (up, down):  9.273E-04 0.000E+00

     total cpu time spent up to now is      827.8 secs

     total energy              =    -449.75327905 Ry
     estimated scf accuracy    <          5.5E-09 Ry

     iteration # 26     ecut=   140.00 Ry     beta= 0.70
     Davidson diagonalization with overlap
     ethr =  1.88E-11,  avg # of iterations =  3.2

     negative rho (up, down):  9.273E-04 0.000E+00

     total cpu time spent up to now is      835.4 secs

     total energy              =    -449.75327905 Ry
     estimated scf accuracy    <          3.9E-10 Ry

     iteration # 27     ecut=   140.00 Ry     beta= 0.70
     Davidson diagonalization with overlap
     ethr =  1.34E-12,  avg # of iterations =  4.4

     negative rho (up, down):  9.273E-04 0.000E+00

     total cpu time spent up to now is      844.2 secs

     End of self-consistent calculation

     Number of k-points >= 100: set verbosity='high' to print the bands.

     the Fermi energy is    16.2290 ev

!    total energy              =    -449.75327905 Ry
     estimated scf accuracy    <          9.2E-11 Ry
     smearing contrib. (-TS)   =      -0.00004046 Ry
     internal energy E=F+TS    =    -449.75323859 Ry

     The total energy is F=E-TS. E is the sum of the following terms:
     one-electron contribution =    -161.27100044 Ry
     hartree contribution      =      95.83012091 Ry
     xc contribution           =     -53.62969225 Ry
     ewald contribution        =    -254.53023634 Ry
     one-center paw contrib.   =     -76.15243047 Ry

     convergence has been achieved in  27 iterations

     negative rho (up, down):  9.273E-04 0.000E+00

     Forces acting on atoms (cartesian axes, Ry/au):

     atom    1 type  2   force =    -0.00051434   -0.00051434   -0.00005290
     atom    2 type  1   force =     0.00020986    0.00020986    0.00019614
     atom    3 type  3   force =     0.00030448    0.00030448   -0.00014324

     Total force =     0.000930     Total SCF correction =     0.000001


     Computing stress (Cartesian axis) and pressure


     negative rho (up, down):  9.273E-04 0.000E+00
          total   stress  (Ry/bohr**3)                   (kbar)     P=        0.60
   0.00000081   0.00000003   0.00000004            0.12        0.00        0.01
   0.00000003   0.00000081   0.00000004            0.00        0.12        0.01
   0.00000004   0.00000004   0.00001066            0.01        0.01        1.57


     Writing all to output data dir ./outputs/TiFe.save/ :
     XML data file
     init_run     :      7.29s CPU      7.56s WALL (       2 calls)
     electrons    :    798.71s CPU    817.22s WALL (       7 calls)
     update_pot   :      0.43s CPU      0.49s WALL (       5 calls)
     forces       :      3.18s CPU      3.29s WALL (       7 calls)
     stress       :     15.85s CPU     16.14s WALL (       7 calls)

     Called by init_run:
     wfcinit      :      5.81s CPU      6.02s WALL (       2 calls)
     potinit      :      0.37s CPU      0.39s WALL (       2 calls)
     hinit0       :      0.77s CPU      0.79s WALL (       2 calls)

     Called by electrons:
     c_bands      :    680.40s CPU    694.56s WALL (      99 calls)
     sum_band     :    104.08s CPU    106.94s WALL (      99 calls)
     v_of_rho     :      1.13s CPU      1.23s WALL (     104 calls)
     newd         :      6.89s CPU      7.68s WALL (     104 calls)
     PAW_pot      :      7.27s CPU      7.96s WALL (     109 calls)
     mix_rho      :      0.14s CPU      0.16s WALL (      99 calls)

     Called by c_bands:
     init_us_2    :     15.54s CPU     15.90s WALL (   80154 calls)
     cegterg      :    653.78s CPU    667.30s WALL (   36234 calls)

     Called by *egterg:
     cdiaghg      :     56.17s CPU     57.33s WALL (  156009 calls)
     h_psi        :    516.27s CPU    527.39s WALL (  159303 calls)
     s_psi        :     11.33s CPU     11.61s WALL (  159303 calls)
     g_psi        :      2.86s CPU      2.91s WALL (  122337 calls)

     Called by h_psi:
     h_psi:calbec :     17.58s CPU     17.97s WALL (  159303 calls)
     vloc_psi     :    485.33s CPU    495.79s WALL (  159303 calls)
     add_vuspsi   :     11.47s CPU     11.77s WALL (  159303 calls)

     General routines
     calbec       :     28.66s CPU     29.29s WALL (  240921 calls)
     fft          :      1.17s CPU      1.28s WALL (    1520 calls)
     ffts         :      0.23s CPU      0.23s WALL (     203 calls)
     fftw         :    503.78s CPU    514.68s WALL ( 4653208 calls)
     interpolate  :      0.26s CPU      0.27s WALL (     104 calls)

     Parallel routines

     PWSCF        :    827.31s CPU    847.26s WALL


   This run was terminated on:  14: 6:30   5Nov2025            

=------------------------------------------------------------------------------=
   JOB DONE.
=------------------------------------------------------------------------------=
