
     Program PWSCF v.7.4 starts on  5Nov2025 at 16:48:46 

     This program is part of the open-source Quantum ESPRESSO suite
     for quantum simulation of materials; please cite
         "P. Giannozzi et al., J. Phys.:Condens. Matter 21 395502 (2009);
         "P. Giannozzi et al., J. Phys.:Condens. Matter 29 465901 (2017);
         "P. Giannozzi et al., J. Chem. Phys. 152 154105 (2020);
          URL http://www.quantum-espresso.org", 
     in publications or presentations arising from this work. More details at
     http://www.quantum-espresso.org/quote

     Parallel version (MPI & OpenMP), running on       8 processor cores
     Number of MPI processes:                 8
     Threads/MPI process:                     1

     MPI processes distributed on     1 nodes
     220089 MiB available memory on the printing compute node when the environment starts

     Reading input from TiFe_Exyz.in

     Current dimensions of program PWSCF are:
     Max number of different atomic species (ntypx) = 10
     Max number of k-points (npk) =  40000
     Max angular momentum in pseudopotentials (lmaxx) =  4

     File ./outputs/TiFe.update deleted, as requested

     File ./outputs/TiFe.bfgs deleted, as requested
     file Fe.pbe-spn-kjpaw_psl.0.2.1.UPF: wavefunction(s)  3D renormalized

     IMPORTANT: XC functional enforced from input :
     Exchange-correlation= PBE
                           (   1   4   3   4   0   0   0)
     Any further DFT definition will be discarded
     Please, verify this is what you really want

     Message from routine setup:
     using ibrav=0 with symmetry is DISCOURAGED, use correct ibrav instead

     R & G space division:  proc/nbgrp/npool/nimage =       8
     Subspace diagonalization in iterative solution of the eigenvalue problem:
     a serial algorithm will be used


     Parallelization info
     --------------------
     sticks:   dense  smooth     PW     G-vecs:    dense   smooth      PW
     Min         347     172     50                13774     4875     752
     Max         349     174     51                13775     4876     755
     Sum        2785    1389    401               110195    39007    6031

     Using Slab Decomposition



     bravais-lattice index     =            0
     lattice parameter (alat)  =       5.5533  a.u.
     unit-cell volume          =     174.0962 (a.u.)^3
     number of atoms/cell      =            5
     number of atomic types    =            3
     number of electrons       =        31.00
     number of Kohn-Sham states=           20
     kinetic-energy cutoff     =     140.0000  Ry
     charge density cutoff     =    1120.0000  Ry
     scf convergence threshold =      1.0E-08
     mixing beta               =       0.7000
     number of iterations used =            8  plain     mixing
     energy convergence thresh.=      1.0E-04
     force convergence thresh. =      1.0E-03
     press convergence thresh. =      5.0E-01
     Exchange-correlation= PBE
                           (   1   4   3   4   0   0   0)
     nstep                     =           50


     celldm(1)=   5.553300  celldm(2)=   0.000000  celldm(3)=   0.000000
     celldm(4)=   0.000000  celldm(5)=   0.000000  celldm(6)=   0.000000

     crystal axes: (cart. coord. in units of alat)
               a(1) = (   1.005492   0.000000   0.000000 )  
               a(2) = (   0.000000   1.005492   0.000000 )  
               a(3) = (   0.000000   0.000000   1.005492 )  

     reciprocal axes: (cart. coord. in units 2 pi/alat)
               b(1) = (  0.994538  0.000000  0.000000 )  
               b(2) = (  0.000000  0.994538  0.000000 )  
               b(3) = (  0.000000  0.000000  0.994538 )  


     PseudoPot. # 1 for Ti read from file:
     /vscmnt/antwerpen_storage_home/_user_antwerpen/211/vsc21140/pseudos/ti_pbe_v1.4.uspp.F.UPF
     MD5 check sum: 88a00a6731bd790ddea75d31a80cb452
     Pseudo is Ultrasoft + core correction, Zval = 12.0
     Generated by new atomic code, or converted to UPF format
     Using radial grid of  851 points,  6 beta functions with: 
                l(1) =   0
                l(2) =   0
                l(3) =   1
                l(4) =   1
                l(5) =   2
                l(6) =   2
     Q(r) pseudized with  6 coefficients,  rinner =    1.000   1.000   1.000
                                                       1.000   1.000

     PseudoPot. # 2 for Fe read from file:
     /vscmnt/antwerpen_storage_home/_user_antwerpen/211/vsc21140/pseudos/Fe.pbe-spn-kjpaw_psl.0.2.1.UPF
     MD5 check sum: e86618425769142926afa95317d90200
     Pseudo is Projector augmented-wave + core cor, Zval = 16.0
     Generated using "atomic" code by A. Dal Corso  v.5.0.99 svn rev. 10869
     Shape of augmentation charge: PSQ
     Using radial grid of 1191 points,  6 beta functions with: 
                l(1) =   0
                l(2) =   0
                l(3) =   1
                l(4) =   1
                l(5) =   2
                l(6) =   2
     Q(r) pseudized with 0 coefficients 


     PseudoPot. # 3 for H  read from file:
     /vscmnt/antwerpen_storage_home/_user_antwerpen/211/vsc21140/pseudos/H.pbe-rrkjus_psl.1.0.0.UPF
     MD5 check sum: f52b6d4d1c606e5624b1dc7b2218f220
     Pseudo is Ultrasoft, Zval =  1.0
     Generated using "atomic" code by A. Dal Corso  v.5.1
     Using radial grid of  929 points,  2 beta functions with: 
                l(1) =   0
                l(2) =   0
     Q(r) pseudized with 0 coefficients 


     atomic species   valence    mass     pseudopotential
     Ti               12.00    47.86700     Ti( 1.00)
     Fe               16.00    55.84500     Fe( 1.00)
     H                 1.00     1.00750     H ( 1.00)

      6 Sym. Ops. (no inversion) found



   Cartesian axes

     site n.     atom                  positions (alat units)
         1        Fe     tau(   1) = (   0.5055071   0.5055071   0.5055071  )
         2        Ti     tau(   2) = (   0.0000000   0.0000000   0.0000000  )
         3        H      tau(   3) = (   0.5027460   0.0000000   0.0000000  )
         4        H      tau(   4) = (   0.0000000   0.5027460   0.0000000  )
         5        H      tau(   5) = (   0.0000000   0.0000000   0.5027460  )

     number of k points=   146  Marzari-Vanderbilt smearing, width (Ry)=  0.0050

     Number of k-points >= 100: set verbosity='high' to print them.

     Dense  grid:   110195 G-vectors     FFT dimensions: (  60,  60,  60)

     Smooth grid:    39007 G-vectors     FFT dimensions: (  45,  45,  45)

     Estimated max dynamical RAM per process >      94.50 MB

     Estimated total dynamical RAM >     755.96 MB

     Check: negative core charge=   -0.000005

     Initial potential from superposition of free atoms

     starting charge      29.9995, renormalised to      31.0000

     negative rho (up, down):  1.304E-03 0.000E+00
     Starting wfcs are   26 randomized atomic wfcs
     Checking if some PAW data can be deallocated... 

     total cpu time spent up to now is        3.1 secs

     per-process dynamical memory:   162.4 Mb

     Self-consistent Calculation

     iteration #  1     ecut=   140.00 Ry     beta= 0.70
     Davidson diagonalization with overlap
     ethr =  1.00E-02,  avg # of iterations =  2.3

     negative rho (up, down):  1.247E-04 0.000E+00

     total cpu time spent up to now is        6.3 secs

     total energy              =    -435.28435436 Ry
     estimated scf accuracy    <      20.85324356 Ry

     iteration #  2     ecut=   140.00 Ry     beta= 0.70
     Davidson diagonalization with overlap
     ethr =  1.00E-02,  avg # of iterations =  6.5

     negative rho (up, down):  2.699E-07 0.000E+00

     total cpu time spent up to now is       12.2 secs

     total energy              =    -448.66590522 Ry
     estimated scf accuracy    <      86.71952630 Ry

     iteration #  3     ecut=   140.00 Ry     beta= 0.70
     Davidson diagonalization with overlap
     ethr =  1.00E-02,  avg # of iterations =  3.1

     negative rho (up, down):  5.457E-05 0.000E+00

     total cpu time spent up to now is       16.0 secs

     total energy              =    -451.70623135 Ry
     estimated scf accuracy    <      16.67295188 Ry

     iteration #  4     ecut=   140.00 Ry     beta= 0.70
     Davidson diagonalization with overlap
     ethr =  1.00E-02,  avg # of iterations =  2.5

     negative rho (up, down):  1.660E-04 0.000E+00

     total cpu time spent up to now is       18.9 secs

     total energy              =    -451.92283975 Ry
     estimated scf accuracy    <       4.20122104 Ry

     iteration #  5     ecut=   140.00 Ry     beta= 0.70
     Davidson diagonalization with overlap
     ethr =  1.00E-02,  avg # of iterations =  1.4

     negative rho (up, down):  8.684E-04 0.000E+00

     total cpu time spent up to now is       21.6 secs

     total energy              =    -451.37052276 Ry
     estimated scf accuracy    <       2.33821991 Ry

     iteration #  6     ecut=   140.00 Ry     beta= 0.70
     Davidson diagonalization with overlap
     ethr =  7.54E-03,  avg # of iterations =  2.9

     negative rho (up, down):  6.176E-04 0.000E+00

     total cpu time spent up to now is       24.6 secs

     total energy              =    -451.62336740 Ry
     estimated scf accuracy    <       0.01121841 Ry

     iteration #  7     ecut=   140.00 Ry     beta= 0.70
     Davidson diagonalization with overlap
     ethr =  3.62E-05,  avg # of iterations =  6.9

     negative rho (up, down):  8.389E-04 0.000E+00

     total cpu time spent up to now is       30.0 secs

     total energy              =    -451.63854895 Ry
     estimated scf accuracy    <       0.07660864 Ry

     iteration #  8     ecut=   140.00 Ry     beta= 0.70
     Davidson diagonalization with overlap
     ethr =  3.62E-05,  avg # of iterations =  3.1

     negative rho (up, down):  8.351E-04 0.000E+00

     total cpu time spent up to now is       33.4 secs

     total energy              =    -451.64434304 Ry
     estimated scf accuracy    <       0.00182233 Ry

     iteration #  9     ecut=   140.00 Ry     beta= 0.70
     Davidson diagonalization with overlap
     ethr =  5.88E-06,  avg # of iterations =  2.4

     negative rho (up, down):  8.545E-04 0.000E+00

     total cpu time spent up to now is       36.3 secs

     total energy              =    -451.64383835 Ry
     estimated scf accuracy    <       0.00135676 Ry

     iteration # 10     ecut=   140.00 Ry     beta= 0.70
     Davidson diagonalization with overlap
     ethr =  4.38E-06,  avg # of iterations =  2.8

     negative rho (up, down):  8.585E-04 0.000E+00

     total cpu time spent up to now is       39.4 secs

     total energy              =    -451.64522182 Ry
     estimated scf accuracy    <       0.01456506 Ry

     iteration # 11     ecut=   140.00 Ry     beta= 0.70
     Davidson diagonalization with overlap
     ethr =  4.38E-06,  avg # of iterations =  1.1

     negative rho (up, down):  8.420E-04 0.000E+00

     total cpu time spent up to now is       42.0 secs

     total energy              =    -451.64430597 Ry
     estimated scf accuracy    <       0.01421667 Ry

     iteration # 12     ecut=   140.00 Ry     beta= 0.70
     Davidson diagonalization with overlap
     ethr =  4.38E-06,  avg # of iterations =  1.4

     negative rho (up, down):  8.255E-04 0.000E+00

     total cpu time spent up to now is       44.6 secs

     total energy              =    -451.64396771 Ry
     estimated scf accuracy    <       0.00408502 Ry

     iteration # 13     ecut=   140.00 Ry     beta= 0.70
     Davidson diagonalization with overlap
     ethr =  4.38E-06,  avg # of iterations =  2.1

     negative rho (up, down):  8.274E-04 0.000E+00

     total cpu time spent up to now is       47.3 secs

     total energy              =    -451.64425371 Ry
     estimated scf accuracy    <       0.00002286 Ry

     iteration # 14     ecut=   140.00 Ry     beta= 0.70
     Davidson diagonalization with overlap
     ethr =  7.37E-08,  avg # of iterations =  2.7

     negative rho (up, down):  8.282E-04 0.000E+00

     total cpu time spent up to now is       50.3 secs

     total energy              =    -451.64425785 Ry
     estimated scf accuracy    <       0.00000091 Ry

     iteration # 15     ecut=   140.00 Ry     beta= 0.70
     Davidson diagonalization with overlap
     ethr =  2.94E-09,  avg # of iterations =  4.2

     negative rho (up, down):  8.277E-04 0.000E+00

     total cpu time spent up to now is       53.8 secs

     total energy              =    -451.64425813 Ry
     estimated scf accuracy    <       0.00000258 Ry

     iteration # 16     ecut=   140.00 Ry     beta= 0.70
     Davidson diagonalization with overlap
     ethr =  2.94E-09,  avg # of iterations =  1.5

     negative rho (up, down):  8.274E-04 0.000E+00

     total cpu time spent up to now is       56.4 secs

     total energy              =    -451.64425824 Ry
     estimated scf accuracy    <       0.00000073 Ry

     iteration # 17     ecut=   140.00 Ry     beta= 0.70
     Davidson diagonalization with overlap
     ethr =  2.34E-09,  avg # of iterations =  2.1

     negative rho (up, down):  8.275E-04 0.000E+00

     total cpu time spent up to now is       59.2 secs

     total energy              =    -451.64425838 Ry
     estimated scf accuracy    <       0.00000176 Ry

     iteration # 18     ecut=   140.00 Ry     beta= 0.70
     Davidson diagonalization with overlap
     ethr =  2.34E-09,  avg # of iterations =  1.0

     negative rho (up, down):  8.273E-04 0.000E+00

     total cpu time spent up to now is       61.7 secs

     total energy              =    -451.64425836 Ry
     estimated scf accuracy    <       0.00000176 Ry

     iteration # 19     ecut=   140.00 Ry     beta= 0.70
     Davidson diagonalization with overlap
     ethr =  2.34E-09,  avg # of iterations =  1.0

     negative rho (up, down):  8.274E-04 0.000E+00

     total cpu time spent up to now is       64.3 secs

     total energy              =    -451.64425820 Ry
     estimated scf accuracy    <       0.00000236 Ry

     iteration # 20     ecut=   140.00 Ry     beta= 0.70
     Davidson diagonalization with overlap
     ethr =  2.34E-09,  avg # of iterations =  1.0

     negative rho (up, down):  8.275E-04 0.000E+00

     total cpu time spent up to now is       66.9 secs

     total energy              =    -451.64425798 Ry
     estimated scf accuracy    <       0.00000110 Ry

     iteration # 21     ecut=   140.00 Ry     beta= 0.70
     Davidson diagonalization with overlap
     ethr =  2.34E-09,  avg # of iterations =  2.0

     negative rho (up, down):  8.275E-04 0.000E+00

     total cpu time spent up to now is       69.7 secs

     total energy              =    -451.64425804 Ry
     estimated scf accuracy    <       0.00000007 Ry

     iteration # 22     ecut=   140.00 Ry     beta= 0.70
     Davidson diagonalization with overlap
     ethr =  2.34E-10,  avg # of iterations =  2.2

     negative rho (up, down):  8.274E-04 0.000E+00

     total cpu time spent up to now is       72.6 secs

     End of self-consistent calculation

     Number of k-points >= 100: set verbosity='high' to print the bands.

     the Fermi energy is    19.4380 ev

!    total energy              =    -451.64425805 Ry
     estimated scf accuracy    <          6.2E-10 Ry
     smearing contrib. (-TS)   =      -0.00013494 Ry
     internal energy E=F+TS    =    -451.64412311 Ry

     The total energy is F=E-TS. E is the sum of the following terms:
     one-electron contribution =    -137.09379188 Ry
     hartree contribution      =      89.35929357 Ry
     xc contribution           =     -55.96581541 Ry
     ewald contribution        =    -271.79987154 Ry
     one-center paw contrib.   =     -76.14393785 Ry

     convergence has been achieved in  22 iterations

     negative rho (up, down):  8.274E-04 0.000E+00

     Forces acting on atoms (cartesian axes, Ry/au):

     atom    1 type  2   force =    -0.00191022   -0.00191022   -0.00191022
     atom    2 type  1   force =     0.00213113    0.00213113    0.00213113
     atom    3 type  3   force =     0.00035792   -0.00028942   -0.00028942
     atom    4 type  3   force =    -0.00028942    0.00035792   -0.00028942
     atom    5 type  3   force =    -0.00028942   -0.00028942    0.00035792

     Total force =     0.005046     Total SCF correction =     0.000034


     Computing stress (Cartesian axis) and pressure


     negative rho (up, down):  8.274E-04 0.000E+00
          total   stress  (Ry/bohr**3)                   (kbar)     P=     1098.78
   0.00746933   0.00000101   0.00000101         1098.78        0.15        0.15
   0.00000101   0.00746933   0.00000101            0.15     1098.78        0.15
   0.00000101   0.00000101   0.00746933            0.15        0.15     1098.78


     BFGS Geometry Optimization
     Energy error            =      4.7E-01 Ry
     Gradient error          =      2.1E-03 Ry/Bohr
     Cell gradient error     =      1.1E+03 kbar

     number of scf cycles    =   1
     number of bfgs steps    =   0

     enthalpy           new  =    -451.6442580450 Ry

     new trust radius        =       0.4927725472 bohr
     new conv_thr            =       0.0000000100 Ry

     new unit-cell volume =    290.97037 a.u.^3 (    43.11736 Ang^3 )
     density =      4.11057 g/cm^3

CELL_PARAMETERS (alat=  5.55330037)
   1.193250862   0.000025454   0.000025454
   0.000025454   1.193250862   0.000025454
   0.000025454   0.000025454   1.193250862

ATOMIC_POSITIONS (crystal)
Fe               0.5024039003        0.5024039003        0.5024039003
Ti               0.0003816635        0.0003816635        0.0003816635
H                0.5000641003       -0.0000518321       -0.0000518321
H               -0.0000518321        0.5000641003       -0.0000518321
H               -0.0000518321       -0.0000518321        0.5000641003



     Writing config-only to output data dir ./outputs/TiFe.save/ :
     XML data file     NEW-OLD atomic charge density approx. for the potential
     New effective cutoffs (rho, wfc):  794.81   99.41

     Check: negative core charge=   -0.000010

     negative rho (up, down):  9.791E-04 0.000E+00

     total cpu time spent up to now is       74.6 secs

     per-process dynamical memory:   166.7 Mb

     Self-consistent Calculation

     iteration #  1     ecut=   140.00 Ry     beta= 0.70
     Davidson diagonalization with overlap
     c_bands:  1 eigenvalues not converged
     c_bands:  1 eigenvalues not converged
     c_bands:  1 eigenvalues not converged
     c_bands:  1 eigenvalues not converged
     ethr =  1.00E-06,  avg # of iterations = 16.4

     negative rho (up, down):  1.038E-03 0.000E+00

     total cpu time spent up to now is       87.4 secs

     total energy              =    -451.45643198 Ry
     estimated scf accuracy    <       0.51068078 Ry

     iteration #  2     ecut=   140.00 Ry     beta= 0.70
     Davidson diagonalization with overlap
     ethr =  1.65E-03,  avg # of iterations =  7.0

     negative rho (up, down):  6.217E-04 0.000E+00

     total cpu time spent up to now is       92.0 secs

     total energy              =    -450.64046457 Ry
     estimated scf accuracy    <      42.77828414 Ry

     iteration #  3     ecut=   140.00 Ry     beta= 0.70
     Davidson diagonalization with overlap
     ethr =  1.65E-03,  avg # of iterations =  6.2

     negative rho (up, down):  8.050E-04 0.000E+00

     total cpu time spent up to now is       96.6 secs

     total energy              =    -451.78297790 Ry
     estimated scf accuracy    <       1.02177236 Ry

     iteration #  4     ecut=   140.00 Ry     beta= 0.70
     Davidson diagonalization with overlap
     ethr =  1.65E-03,  avg # of iterations =  2.2

     negative rho (up, down):  8.119E-04 0.000E+00

     total cpu time spent up to now is       99.5 secs

     total energy              =    -451.84972255 Ry
     estimated scf accuracy    <       0.01335147 Ry

     iteration #  5     ecut=   140.00 Ry     beta= 0.70
     Davidson diagonalization with overlap
     ethr =  4.31E-05,  avg # of iterations =  5.4

     negative rho (up, down):  8.188E-04 0.000E+00

     total cpu time spent up to now is      104.2 secs

     total energy              =    -451.86254396 Ry
     estimated scf accuracy    <       0.00070868 Ry

     iteration #  6     ecut=   140.00 Ry     beta= 0.70
     Davidson diagonalization with overlap
     ethr =  2.29E-06,  avg # of iterations =  5.4

     negative rho (up, down):  8.208E-04 0.000E+00

     total cpu time spent up to now is      108.7 secs

     total energy              =    -451.86296097 Ry
     estimated scf accuracy    <       0.00231614 Ry

     iteration #  7     ecut=   140.00 Ry     beta= 0.70
     Davidson diagonalization with overlap
     ethr =  2.29E-06,  avg # of iterations =  1.0

     negative rho (up, down):  8.173E-04 0.000E+00

     total cpu time spent up to now is      111.3 secs

     total energy              =    -451.86278423 Ry
     estimated scf accuracy    <       0.00138064 Ry

     iteration #  8     ecut=   140.00 Ry     beta= 0.70
     Davidson diagonalization with overlap
     ethr =  2.29E-06,  avg # of iterations =  1.7

     negative rho (up, down):  8.163E-04 0.000E+00

     total cpu time spent up to now is      114.0 secs

     total energy              =    -451.86277039 Ry
     estimated scf accuracy    <       0.00066415 Ry

     iteration #  9     ecut=   140.00 Ry     beta= 0.70
     Davidson diagonalization with overlap
     ethr =  2.14E-06,  avg # of iterations =  1.0

     negative rho (up, down):  8.178E-04 0.000E+00

     total cpu time spent up to now is      116.5 secs

     total energy              =    -451.86281955 Ry
     estimated scf accuracy    <       0.00051068 Ry

     iteration # 10     ecut=   140.00 Ry     beta= 0.70
     Davidson diagonalization with overlap
     ethr =  1.65E-06,  avg # of iterations =  1.0

     negative rho (up, down):  8.129E-04 0.000E+00

     total cpu time spent up to now is      119.1 secs

     total energy              =    -451.86268188 Ry
     estimated scf accuracy    <       0.00062824 Ry

     iteration # 11     ecut=   140.00 Ry     beta= 0.70
     Davidson diagonalization with overlap
     ethr =  1.65E-06,  avg # of iterations =  1.4

     negative rho (up, down):  8.110E-04 0.000E+00

     total cpu time spent up to now is      121.7 secs

     total energy              =    -451.86266345 Ry
     estimated scf accuracy    <       0.00026207 Ry

     iteration # 12     ecut=   140.00 Ry     beta= 0.70
     Davidson diagonalization with overlap
     ethr =  8.45E-07,  avg # of iterations =  1.7

     negative rho (up, down):  8.084E-04 0.000E+00

     total cpu time spent up to now is      124.4 secs

     total energy              =    -451.86264419 Ry
     estimated scf accuracy    <       0.00012031 Ry

     iteration # 13     ecut=   140.00 Ry     beta= 0.70
     Davidson diagonalization with overlap
     ethr =  3.88E-07,  avg # of iterations =  2.3

     negative rho (up, down):  8.063E-04 0.000E+00

     total cpu time spent up to now is      127.2 secs

     total energy              =    -451.86264656 Ry
     estimated scf accuracy    <       0.00002500 Ry

     iteration # 14     ecut=   140.00 Ry     beta= 0.70
     Davidson diagonalization with overlap
     ethr =  8.06E-08,  avg # of iterations =  4.3

     negative rho (up, down):  8.053E-04 0.000E+00

     total cpu time spent up to now is      130.9 secs

     total energy              =    -451.86265756 Ry
     estimated scf accuracy    <       0.00000343 Ry

     iteration # 15     ecut=   140.00 Ry     beta= 0.70
     Davidson diagonalization with overlap
     ethr =  1.11E-08,  avg # of iterations =  4.5

     negative rho (up, down):  8.070E-04 0.000E+00

     total cpu time spent up to now is      134.6 secs

     total energy              =    -451.86265513 Ry
     estimated scf accuracy    <       0.00001388 Ry

     iteration # 16     ecut=   140.00 Ry     beta= 0.70
     Davidson diagonalization with overlap
     ethr =  1.11E-08,  avg # of iterations =  3.7

     negative rho (up, down):  8.077E-04 0.000E+00

     total cpu time spent up to now is      137.8 secs

     total energy              =    -451.86265528 Ry
     estimated scf accuracy    <       0.00000265 Ry

     iteration # 17     ecut=   140.00 Ry     beta= 0.70
     Davidson diagonalization with overlap
     ethr =  8.56E-09,  avg # of iterations =  1.9

     negative rho (up, down):  8.084E-04 0.000E+00

     total cpu time spent up to now is      140.6 secs

     total energy              =    -451.86265513 Ry
     estimated scf accuracy    <       0.00000074 Ry

     iteration # 18     ecut=   140.00 Ry     beta= 0.70
     Davidson diagonalization with overlap
     ethr =  2.39E-09,  avg # of iterations =  3.5

     negative rho (up, down):  8.083E-04 0.000E+00

     total cpu time spent up to now is      143.8 secs

     total energy              =    -451.86265530 Ry
     estimated scf accuracy    <       0.00000010 Ry

     iteration # 19     ecut=   140.00 Ry     beta= 0.70
     Davidson diagonalization with overlap
     ethr =  3.31E-10,  avg # of iterations =  3.1

     negative rho (up, down):  8.084E-04 0.000E+00

     total cpu time spent up to now is      147.0 secs

     total energy              =    -451.86265531 Ry
     estimated scf accuracy    <       0.00000006 Ry

     iteration # 20     ecut=   140.00 Ry     beta= 0.70
     Davidson diagonalization with overlap
     ethr =  2.04E-10,  avg # of iterations =  1.9

     negative rho (up, down):  8.086E-04 0.000E+00

     total cpu time spent up to now is      149.8 secs

     total energy              =    -451.86265530 Ry
     estimated scf accuracy    <       0.00000002 Ry

     iteration # 21     ecut=   140.00 Ry     beta= 0.70
     Davidson diagonalization with overlap
     ethr =  6.42E-11,  avg # of iterations =  4.5

     negative rho (up, down):  8.086E-04 0.000E+00

     total cpu time spent up to now is      153.3 secs

     End of self-consistent calculation

     Number of k-points >= 100: set verbosity='high' to print the bands.

     the Fermi energy is    10.4317 ev

!    total energy              =    -451.86265531 Ry
     estimated scf accuracy    <          3.5E-10 Ry
     smearing contrib. (-TS)   =      -0.00058640 Ry
     internal energy E=F+TS    =    -451.86206891 Ry

     The total energy is F=E-TS. E is the sum of the following terms:
     one-electron contribution =    -204.61219816 Ry
     hartree contribution      =     112.77146258 Ry
     xc contribution           =     -54.85519945 Ry
     ewald contribution        =    -229.03335014 Ry
     one-center paw contrib.   =     -76.13278374 Ry

     convergence has been achieved in  21 iterations

     negative rho (up, down):  8.086E-04 0.000E+00

     Forces acting on atoms (cartesian axes, Ry/au):

     atom    1 type  2   force =     0.00063191    0.00063191    0.00063191
     atom    2 type  1   force =    -0.00065213   -0.00065213   -0.00065213
     atom    3 type  3   force =     0.00094119   -0.00046049   -0.00046049
     atom    4 type  3   force =    -0.00046049    0.00094119   -0.00046049
     atom    5 type  3   force =    -0.00046049   -0.00046049    0.00094119

     Total force =     0.002531     Total SCF correction =     0.000002


     Computing stress (Cartesian axis) and pressure


     negative rho (up, down):  8.086E-04 0.000E+00
          total   stress  (Ry/bohr**3)                   (kbar)     P=     -106.35
  -0.00072295   0.00000064   0.00000064         -106.35        0.09        0.09
   0.00000064  -0.00072295   0.00000064            0.09     -106.35        0.09
   0.00000064   0.00000064  -0.00072295            0.09        0.09     -106.35

     Energy error            =      2.2E-01 Ry
     Gradient error          =      9.4E-04 Ry/Bohr
     Cell gradient error     =      1.1E+02 kbar

     number of scf cycles    =   2
     number of bfgs steps    =   1

     enthalpy           old  =    -451.6442580450 Ry
     enthalpy           new  =    -451.8626553096 Ry

     CASE: enthalpy          _new < enthalpy          _old

     new trust radius        =       0.0643914193 bohr
     new conv_thr            =            1.0E-10 Ry

     new unit-cell volume =    274.80370 a.u.^3 (    40.72171 Ang^3 )
     density =      4.35239 g/cm^3

CELL_PARAMETERS (alat=  5.55330037)
   1.170728965   0.000045980   0.000045980
   0.000045980   1.170728965   0.000045980
   0.000045980   0.000045980   1.170728965

ATOMIC_POSITIONS (crystal)
Fe               0.5025220915        0.5025220915        0.5025220915
Ti               0.0002596900        0.0002596900        0.0002596900
H                0.5002401337       -0.0001379576       -0.0001379576
H               -0.0001379576        0.5002401337       -0.0001379576
H               -0.0001379576       -0.0001379576        0.5002401337



     Writing config-only to output data dir ./outputs/TiFe.save/ :
     XML data file     NEW-OLD atomic charge density approx. for the potential
     New effective cutoffs (rho, wfc):  825.72  103.27

     Check: negative core charge=   -0.000007

     negative rho (up, down):  7.730E-04 0.000E+00

     total cpu time spent up to now is      155.4 secs

     per-process dynamical memory:   166.7 Mb

     Self-consistent Calculation

     iteration #  1     ecut=   140.00 Ry     beta= 0.70
     Davidson diagonalization with overlap
     ethr =  1.00E-06,  avg # of iterations =  8.4

     negative rho (up, down):  7.827E-04 0.000E+00

     total cpu time spent up to now is      161.9 secs

     total energy              =    -451.86888391 Ry
     estimated scf accuracy    <       0.00379362 Ry

     iteration #  2     ecut=   140.00 Ry     beta= 0.70
     Davidson diagonalization with overlap
     ethr =  1.22E-05,  avg # of iterations =  4.9

     negative rho (up, down):  8.027E-04 0.000E+00

     total cpu time spent up to now is      165.8 secs

     total energy              =    -451.84970704 Ry
     estimated scf accuracy    <       0.43907610 Ry

     iteration #  3     ecut=   140.00 Ry     beta= 0.70
     Davidson diagonalization with overlap
     ethr =  1.22E-05,  avg # of iterations =  4.5

     negative rho (up, down):  7.944E-04 0.000E+00

     total cpu time spent up to now is      169.6 secs

     total energy              =    -451.87160225 Ry
     estimated scf accuracy    <       0.00106741 Ry

     iteration #  4     ecut=   140.00 Ry     beta= 0.70
     Davidson diagonalization with overlap
     ethr =  3.44E-06,  avg # of iterations =  2.0

     negative rho (up, down):  7.963E-04 0.000E+00

     total cpu time spent up to now is      172.5 secs

     total energy              =    -451.87176372 Ry
     estimated scf accuracy    <       0.00000651 Ry

     iteration #  5     ecut=   140.00 Ry     beta= 0.70
     Davidson diagonalization with overlap
     ethr =  2.10E-08,  avg # of iterations =  7.0

     negative rho (up, down):  7.977E-04 0.000E+00

     total cpu time spent up to now is      178.2 secs

     total energy              =    -451.87178480 Ry
     estimated scf accuracy    <       0.00002735 Ry

     iteration #  6     ecut=   140.00 Ry     beta= 0.70
     Davidson diagonalization with overlap
     ethr =  2.10E-08,  avg # of iterations =  3.0

     negative rho (up, down):  7.984E-04 0.000E+00

     total cpu time spent up to now is      181.3 secs

     total energy              =    -451.87178466 Ry
     estimated scf accuracy    <       0.00000568 Ry

     iteration #  7     ecut=   140.00 Ry     beta= 0.70
     Davidson diagonalization with overlap
     ethr =  1.83E-08,  avg # of iterations =  2.0

     negative rho (up, down):  7.991E-04 0.000E+00

     total cpu time spent up to now is      184.1 secs

     total energy              =    -451.87178470 Ry
     estimated scf accuracy    <       0.00000111 Ry

     iteration #  8     ecut=   140.00 Ry     beta= 0.70
     Davidson diagonalization with overlap
     ethr =  3.57E-09,  avg # of iterations =  3.8

     negative rho (up, down):  7.990E-04 0.000E+00

     total cpu time spent up to now is      187.6 secs

     total energy              =    -451.87178503 Ry
     estimated scf accuracy    <       0.00000008 Ry

     iteration #  9     ecut=   140.00 Ry     beta= 0.70
     Davidson diagonalization with overlap
     ethr =  2.59E-10,  avg # of iterations =  4.8

     negative rho (up, down):  7.990E-04 0.000E+00

     total cpu time spent up to now is      191.2 secs

     total energy              =    -451.87178505 Ry
     estimated scf accuracy    <       0.00000001 Ry

     iteration # 10     ecut=   140.00 Ry     beta= 0.70
     Davidson diagonalization with overlap
     ethr =  3.27E-11,  avg # of iterations =  4.0

     negative rho (up, down):  7.990E-04 0.000E+00

     total cpu time spent up to now is      194.7 secs

     total energy              =    -451.87178505 Ry
     estimated scf accuracy    <          1.5E-09 Ry

     iteration # 11     ecut=   140.00 Ry     beta= 0.70
     Davidson diagonalization with overlap
     ethr =  4.76E-12,  avg # of iterations =  2.4

     negative rho (up, down):  7.990E-04 0.000E+00

     total cpu time spent up to now is      197.5 secs

     total energy              =    -451.87178505 Ry
     estimated scf accuracy    <          2.3E-10 Ry

     iteration # 12     ecut=   140.00 Ry     beta= 0.70
     Davidson diagonalization with overlap
     ethr =  7.27E-13,  avg # of iterations =  2.9

     negative rho (up, down):  7.990E-04 0.000E+00

     total cpu time spent up to now is      200.6 secs

     End of self-consistent calculation

     Number of k-points >= 100: set verbosity='high' to print the bands.

     the Fermi energy is    11.2430 ev

!    total energy              =    -451.87178505 Ry
     estimated scf accuracy    <          1.2E-11 Ry
     smearing contrib. (-TS)   =      -0.00055401 Ry
     internal energy E=F+TS    =    -451.87123105 Ry

     The total energy is F=E-TS. E is the sum of the following terms:
     one-electron contribution =    -197.49953370 Ry
     hartree contribution      =     110.14988074 Ry
     xc contribution           =     -54.94881634 Ry
     ewald contribution        =    -233.43887152 Ry
     one-center paw contrib.   =     -76.13389023 Ry

     convergence has been achieved in  12 iterations

     negative rho (up, down):  7.990E-04 0.000E+00

     Forces acting on atoms (cartesian axes, Ry/au):

     atom    1 type  2   force =     0.00058632    0.00058632    0.00058632
     atom    2 type  1   force =     0.00009935    0.00009935    0.00009935
     atom    3 type  3   force =     0.00033177   -0.00050872   -0.00050872
     atom    4 type  3   force =    -0.00050872    0.00033177   -0.00050872
     atom    5 type  3   force =    -0.00050872   -0.00050872    0.00033177

     Total force =     0.001716     Total SCF correction =     0.000000


     Computing stress (Cartesian axis) and pressure


     negative rho (up, down):  7.990E-04 0.000E+00
          total   stress  (Ry/bohr**3)                   (kbar)     P=      -57.26
  -0.00038922   0.00000065   0.00000065          -57.26        0.10        0.10
   0.00000065  -0.00038922   0.00000065            0.10      -57.26        0.10
   0.00000065   0.00000065  -0.00038922            0.10        0.10      -57.26

     Energy error            =      9.1E-03 Ry
     Gradient error          =      5.9E-04 Ry/Bohr
     Cell gradient error     =      5.7E+01 kbar

     number of scf cycles    =   3
     number of bfgs steps    =   2

     enthalpy           old  =    -451.8626553096 Ry
     enthalpy           new  =    -451.8717850547 Ry

     CASE: enthalpy          _new < enthalpy          _old

     new trust radius        =       0.0686502286 bohr
     new conv_thr            =            1.0E-10 Ry

     new unit-cell volume =    258.08435 a.u.^3 (    38.24415 Ang^3 )
     density =      4.63435 g/cm^3

CELL_PARAMETERS (alat=  5.55330037)
   1.146487688   0.000090305   0.000090305
   0.000090305   1.146487688   0.000090305
   0.000090305   0.000090305   1.146487688

ATOMIC_POSITIONS (crystal)
Fe               0.5027586220        0.5027586220        0.5027586220
Ti               0.0003205060        0.0003205060        0.0003205060
H                0.5003580156       -0.0003455718       -0.0003455718
H               -0.0003455718        0.5003580156       -0.0003455718
H               -0.0003455718       -0.0003455718        0.5003580156



     Writing config-only to output data dir ./outputs/TiFe.save/ :
     XML data file     NEW-OLD atomic charge density approx. for the potential
     New effective cutoffs (rho, wfc):  861.07  107.69

     Check: negative core charge=   -0.000004

     negative rho (up, down):  7.561E-04 0.000E+00

     total cpu time spent up to now is      202.7 secs

     per-process dynamical memory:   166.7 Mb

     Self-consistent Calculation

     iteration #  1     ecut=   140.00 Ry     beta= 0.70
     Davidson diagonalization with overlap
     ethr =  1.00E-06,  avg # of iterations =  8.1

     negative rho (up, down):  7.642E-04 0.000E+00

     total cpu time spent up to now is      209.4 secs

     total energy              =    -451.87075642 Ry
     estimated scf accuracy    <       0.00494744 Ry

     iteration #  2     ecut=   140.00 Ry     beta= 0.70
     Davidson diagonalization with overlap
     ethr =  1.60E-05,  avg # of iterations =  4.8

     negative rho (up, down):  7.858E-04 0.000E+00

     total cpu time spent up to now is      213.3 secs

     total energy              =    -451.84788805 Ry
     estimated scf accuracy    <       0.50044268 Ry

     iteration #  3     ecut=   140.00 Ry     beta= 0.70
     Davidson diagonalization with overlap
     ethr =  1.60E-05,  avg # of iterations =  4.4

     negative rho (up, down):  7.785E-04 0.000E+00

     total cpu time spent up to now is      217.0 secs

     total energy              =    -451.87438663 Ry
     estimated scf accuracy    <       0.00076625 Ry

     iteration #  4     ecut=   140.00 Ry     beta= 0.70
     Davidson diagonalization with overlap
     ethr =  2.47E-06,  avg # of iterations =  2.3

     negative rho (up, down):  7.810E-04 0.000E+00

     total cpu time spent up to now is      220.0 secs

     total energy              =    -451.87454840 Ry
     estimated scf accuracy    <       0.00000300 Ry

     iteration #  5     ecut=   140.00 Ry     beta= 0.70
     Davidson diagonalization with overlap
     ethr =  9.67E-09,  avg # of iterations =  7.9

     negative rho (up, down):  7.821E-04 0.000E+00

     total cpu time spent up to now is      226.2 secs

     total energy              =    -451.87456607 Ry
     estimated scf accuracy    <       0.00002420 Ry

     iteration #  6     ecut=   140.00 Ry     beta= 0.70
     Davidson diagonalization with overlap
     ethr =  9.67E-09,  avg # of iterations =  3.2

     negative rho (up, down):  7.832E-04 0.000E+00

     total cpu time spent up to now is      229.4 secs

     total energy              =    -451.87456524 Ry
     estimated scf accuracy    <       0.00000404 Ry

     iteration #  7     ecut=   140.00 Ry     beta= 0.70
     Davidson diagonalization with overlap
     ethr =  9.67E-09,  avg # of iterations =  3.0

     negative rho (up, down):  7.832E-04 0.000E+00

     total cpu time spent up to now is      232.8 secs

     total energy              =    -451.87456637 Ry
     estimated scf accuracy    <       0.00000018 Ry

     iteration #  8     ecut=   140.00 Ry     beta= 0.70
     Davidson diagonalization with overlap
     ethr =  5.95E-10,  avg # of iterations =  3.2

     negative rho (up, down):  7.832E-04 0.000E+00

     total cpu time spent up to now is      236.1 secs

     total energy              =    -451.87456644 Ry
     estimated scf accuracy    <       0.00000002 Ry

     iteration #  9     ecut=   140.00 Ry     beta= 0.70
     Davidson diagonalization with overlap
     ethr =  7.14E-11,  avg # of iterations =  3.8

     negative rho (up, down):  7.832E-04 0.000E+00

     total cpu time spent up to now is      239.4 secs

     total energy              =    -451.87456644 Ry
     estimated scf accuracy    <          7.3E-09 Ry

     iteration # 10     ecut=   140.00 Ry     beta= 0.70
     Davidson diagonalization with overlap
     ethr =  2.34E-11,  avg # of iterations =  4.4

     negative rho (up, down):  7.832E-04 0.000E+00

     total cpu time spent up to now is      242.9 secs

     total energy              =    -451.87456644 Ry
     estimated scf accuracy    <          1.7E-10 Ry

     iteration # 11     ecut=   140.00 Ry     beta= 0.70
     Davidson diagonalization with overlap
     ethr =  5.58E-13,  avg # of iterations =  4.9

     negative rho (up, down):  7.832E-04 0.000E+00

     total cpu time spent up to now is      247.0 secs

     total energy              =    -451.87456644 Ry
     estimated scf accuracy    <          2.9E-10 Ry

     iteration # 12     ecut=   140.00 Ry     beta= 0.70
     Davidson diagonalization with overlap
     ethr =  5.58E-13,  avg # of iterations =  2.0

     negative rho (up, down):  7.832E-04 0.000E+00

     total cpu time spent up to now is      249.9 secs

     End of self-consistent calculation

     Number of k-points >= 100: set verbosity='high' to print the bands.

     the Fermi energy is    12.1830 ev

!    total energy              =    -451.87456644 Ry
     estimated scf accuracy    <          7.7E-11 Ry
     smearing contrib. (-TS)   =      -0.00051107 Ry
     internal energy E=F+TS    =    -451.87405537 Ry

     The total energy is F=E-TS. E is the sum of the following terms:
     one-electron contribution =    -189.57714577 Ry
     hartree contribution      =     107.27171079 Ry
     xc contribution           =     -55.05937101 Ry
     ewald contribution        =    -238.37410040 Ry
     one-center paw contrib.   =     -76.13514897 Ry

     convergence has been achieved in  12 iterations

     negative rho (up, down):  7.832E-04 0.000E+00

     Forces acting on atoms (cartesian axes, Ry/au):

     atom    1 type  2   force =     0.00054067    0.00054067    0.00054067
     atom    2 type  1   force =     0.00052790    0.00052790    0.00052790
     atom    3 type  3   force =     0.00022085   -0.00064471   -0.00064471
     atom    4 type  3   force =    -0.00064471    0.00022085   -0.00064471
     atom    5 type  3   force =    -0.00064471   -0.00064471    0.00022085

     Total force =     0.002086     Total SCF correction =     0.000001


     Computing stress (Cartesian axis) and pressure


     negative rho (up, down):  7.832E-04 0.000E+00
          total   stress  (Ry/bohr**3)                   (kbar)     P=       12.27
   0.00008339   0.00000065   0.00000065           12.27        0.10        0.10
   0.00000065   0.00008339   0.00000065            0.10       12.27        0.10
   0.00000065   0.00000065   0.00008339            0.10        0.10       12.27

     Energy error            =      2.8E-03 Ry
     Gradient error          =      6.4E-04 Ry/Bohr
     Cell gradient error     =      1.2E+01 kbar

     number of scf cycles    =   4
     number of bfgs steps    =   3

     enthalpy           old  =    -451.8717850547 Ry
     enthalpy           new  =    -451.8745664412 Ry

     CASE: enthalpy          _new < enthalpy          _old

     new trust radius        =       0.0114971636 bohr
     new conv_thr            =            1.0E-10 Ry

     new unit-cell volume =    260.86477 a.u.^3 (    38.65617 Ang^3 )
     density =      4.58496 g/cm^3

CELL_PARAMETERS (alat=  5.55330037)
   1.150590151   0.000104249   0.000104249
   0.000104249   1.150590151   0.000104249
   0.000104249   0.000104249   1.150590151

ATOMIC_POSITIONS (crystal)
Fe               0.5028311407        0.5028311407        0.5028311407
Ti               0.0004032292        0.0004032292        0.0004032292
H                0.5003873464       -0.0004378581       -0.0004378581
H               -0.0004378581        0.5003873464       -0.0004378581
H               -0.0004378581       -0.0004378581        0.5003873464



     Writing config-only to output data dir ./outputs/TiFe.save/ :
     XML data file     NEW-OLD atomic charge density approx. for the potential
     New effective cutoffs (rho, wfc):  854.96  106.93

     Check: negative core charge=   -0.000005

     negative rho (up, down):  7.899E-04 0.000E+00

     total cpu time spent up to now is      252.0 secs

     per-process dynamical memory:   166.7 Mb

     Self-consistent Calculation

     iteration #  1     ecut=   140.00 Ry     beta= 0.70
     Davidson diagonalization with overlap
     ethr =  1.00E-06,  avg # of iterations =  5.0

     negative rho (up, down):  7.890E-04 0.000E+00

     total cpu time spent up to now is      256.7 secs

     total energy              =    -451.87456506 Ry
     estimated scf accuracy    <       0.00014306 Ry

     iteration #  2     ecut=   140.00 Ry     beta= 0.70
     Davidson diagonalization with overlap
     ethr =  4.61E-07,  avg # of iterations =  4.6

     negative rho (up, down):  7.848E-04 0.000E+00

     total cpu time spent up to now is      260.5 secs

     total energy              =    -451.87353615 Ry
     estimated scf accuracy    <       0.02500266 Ry

     iteration #  3     ecut=   140.00 Ry     beta= 0.70
     Davidson diagonalization with overlap
     ethr =  4.61E-07,  avg # of iterations =  4.7

     negative rho (up, down):  7.861E-04 0.000E+00

     total cpu time spent up to now is      264.1 secs

     total energy              =    -451.87467075 Ry
     estimated scf accuracy    <       0.00003212 Ry

     iteration #  4     ecut=   140.00 Ry     beta= 0.70
     Davidson diagonalization with overlap
     ethr =  1.04E-07,  avg # of iterations =  2.0

     negative rho (up, down):  7.860E-04 0.000E+00

     total cpu time spent up to now is      267.0 secs

     total energy              =    -451.87467481 Ry
     estimated scf accuracy    <       0.00000485 Ry

     iteration #  5     ecut=   140.00 Ry     beta= 0.70
     Davidson diagonalization with overlap
     ethr =  1.56E-08,  avg # of iterations =  3.2

     negative rho (up, down):  7.858E-04 0.000E+00

     total cpu time spent up to now is      270.2 secs

     total energy              =    -451.87467564 Ry
     estimated scf accuracy    <       0.00000034 Ry

     iteration #  6     ecut=   140.00 Ry     beta= 0.70
     Davidson diagonalization with overlap
     ethr =  1.09E-09,  avg # of iterations =  4.9

     negative rho (up, down):  7.858E-04 0.000E+00

     total cpu time spent up to now is      274.1 secs

     total energy              =    -451.87467581 Ry
     estimated scf accuracy    <       0.00000016 Ry

     iteration #  7     ecut=   140.00 Ry     beta= 0.70
     Davidson diagonalization with overlap
     ethr =  5.18E-10,  avg # of iterations =  1.1

     negative rho (up, down):  7.854E-04 0.000E+00

     total cpu time spent up to now is      276.7 secs

     total energy              =    -451.87467570 Ry
     estimated scf accuracy    <       0.00000018 Ry

     iteration #  8     ecut=   140.00 Ry     beta= 0.70
     Davidson diagonalization with overlap
     ethr =  5.18E-10,  avg # of iterations =  3.7

     negative rho (up, down):  7.856E-04 0.000E+00

     total cpu time spent up to now is      280.2 secs

     total energy              =    -451.87467575 Ry
     estimated scf accuracy    <       0.00000008 Ry

     iteration #  9     ecut=   140.00 Ry     beta= 0.70
     Davidson diagonalization with overlap
     ethr =  2.58E-10,  avg # of iterations =  2.0

     negative rho (up, down):  7.856E-04 0.000E+00

     total cpu time spent up to now is      283.0 secs

     total energy              =    -451.87467576 Ry
     estimated scf accuracy    <          1.0E-08 Ry

     iteration # 10     ecut=   140.00 Ry     beta= 0.70
     Davidson diagonalization with overlap
     ethr =  3.21E-11,  avg # of iterations =  3.9

     negative rho (up, down):  7.856E-04 0.000E+00

     total cpu time spent up to now is      286.3 secs

     total energy              =    -451.87467576 Ry
     estimated scf accuracy    <          4.8E-10 Ry

     iteration # 11     ecut=   140.00 Ry     beta= 0.70
     Davidson diagonalization with overlap
     ethr =  1.55E-12,  avg # of iterations =  4.9

     negative rho (up, down):  7.856E-04 0.000E+00

     total cpu time spent up to now is      290.1 secs

     End of self-consistent calculation

     Number of k-points >= 100: set verbosity='high' to print the bands.

     the Fermi energy is    12.0188 ev

!    total energy              =    -451.87467576 Ry
     estimated scf accuracy    <          8.7E-11 Ry
     smearing contrib. (-TS)   =      -0.00051904 Ry
     internal energy E=F+TS    =    -451.87415672 Ry

     The total energy is F=E-TS. E is the sum of the following terms:
     one-electron contribution =    -190.93823862 Ry
     hartree contribution      =     107.76299399 Ry
     xc contribution           =     -55.03988856 Ry
     ewald contribution        =    -237.52409291 Ry
     one-center paw contrib.   =     -76.13493061 Ry

     convergence has been achieved in  11 iterations

     negative rho (up, down):  7.856E-04 0.000E+00

     Forces acting on atoms (cartesian axes, Ry/au):

     atom    1 type  2   force =     0.00062742    0.00062742    0.00062742
     atom    2 type  1   force =     0.00039544    0.00039544    0.00039544
     atom    3 type  3   force =     0.00036766   -0.00069526   -0.00069526
     atom    4 type  3   force =    -0.00069526    0.00036766   -0.00069526
     atom    5 type  3   force =    -0.00069526   -0.00069526    0.00036766

     Total force =     0.002226     Total SCF correction =     0.000007


     Computing stress (Cartesian axis) and pressure


     negative rho (up, down):  7.856E-04 0.000E+00
          total   stress  (Ry/bohr**3)                   (kbar)     P=       -0.95
  -0.00000648   0.00000064   0.00000064           -0.95        0.09        0.09
   0.00000064  -0.00000648   0.00000064            0.09       -0.95        0.09
   0.00000064   0.00000064  -0.00000648            0.09        0.09       -0.95

     Energy error            =      1.1E-04 Ry
     Gradient error          =      7.0E-04 Ry/Bohr
     Cell gradient error     =      9.5E-01 kbar

     number of scf cycles    =   5
     number of bfgs steps    =   4

     enthalpy           old  =    -451.8745664412 Ry
     enthalpy           new  =    -451.8746757613 Ry

     CASE: enthalpy          _new < enthalpy          _old

     new trust radius        =       0.0014025289 bohr
     new conv_thr            =            1.0E-10 Ry

     new unit-cell volume =    260.71462 a.u.^3 (    38.63392 Ang^3 )
     density =      4.58760 g/cm^3

CELL_PARAMETERS (alat=  5.55330037)
   1.150369355   0.000125024   0.000125024
   0.000125024   1.150369355   0.000125024
   0.000125024   0.000125024   1.150369355

ATOMIC_POSITIONS (crystal)
Fe               0.5029578477        0.5029578477        0.5029578477
Ti               0.0004840787        0.0004840787        0.0004840787
H                0.5004607148       -0.0005783206       -0.0005783206
H               -0.0005783206        0.5004607148       -0.0005783206
H               -0.0005783206       -0.0005783206        0.5004607148



     Writing config-only to output data dir ./outputs/TiFe.save/ :
     XML data file     NEW-OLD atomic charge density approx. for the potential
     New effective cutoffs (rho, wfc):  855.32  106.98

     Check: negative core charge=   -0.000005

     negative rho (up, down):  7.845E-04 0.000E+00

     total cpu time spent up to now is      292.2 secs

     per-process dynamical memory:   166.7 Mb

     Self-consistent Calculation

     iteration #  1     ecut=   140.00 Ry     beta= 0.70
     Davidson diagonalization with overlap
     ethr =  1.00E-06,  avg # of iterations =  3.0

     Threshold (ethr) on eigenvalues was too large:
     Diagonalizing with lowered threshold

     Davidson diagonalization with overlap
     ethr =  2.93E-09,  avg # of iterations =  6.3

     negative rho (up, down):  7.846E-04 0.000E+00

     total cpu time spent up to now is      301.1 secs

     total energy              =    -451.87468276 Ry
     estimated scf accuracy    <       0.00000073 Ry

     iteration #  2     ecut=   140.00 Ry     beta= 0.70
     Davidson diagonalization with overlap
     ethr =  2.37E-09,  avg # of iterations =  4.3

     negative rho (up, down):  7.848E-04 0.000E+00

     total cpu time spent up to now is      304.7 secs

     total energy              =    -451.87467972 Ry
     estimated scf accuracy    <       0.00006660 Ry

     iteration #  3     ecut=   140.00 Ry     beta= 0.70
     Davidson diagonalization with overlap
     ethr =  2.37E-09,  avg # of iterations =  4.5

     negative rho (up, down):  7.847E-04 0.000E+00

     total cpu time spent up to now is      308.0 secs

     total energy              =    -451.87468311 Ry
     estimated scf accuracy    <       0.00000040 Ry

     iteration #  4     ecut=   140.00 Ry     beta= 0.70
     Davidson diagonalization with overlap
     ethr =  1.28E-09,  avg # of iterations =  2.0

     negative rho (up, down):  7.847E-04 0.000E+00

     total cpu time spent up to now is      310.8 secs

     total energy              =    -451.87468315 Ry
     estimated scf accuracy    <       0.00000002 Ry

     iteration #  5     ecut=   140.00 Ry     beta= 0.70
     Davidson diagonalization with overlap
     ethr =  6.27E-11,  avg # of iterations =  3.1

     negative rho (up, down):  7.848E-04 0.000E+00

     total cpu time spent up to now is      314.0 secs

     total energy              =    -451.87468315 Ry
     estimated scf accuracy    <          9.0E-10 Ry

     iteration #  6     ecut=   140.00 Ry     beta= 0.70
     Davidson diagonalization with overlap
     ethr =  2.89E-12,  avg # of iterations =  5.0

     negative rho (up, down):  7.848E-04 0.000E+00

     total cpu time spent up to now is      318.2 secs

     End of self-consistent calculation

     Number of k-points >= 100: set verbosity='high' to print the bands.

     the Fermi energy is    12.0275 ev

!    total energy              =    -451.87468315 Ry
     estimated scf accuracy    <          5.3E-11 Ry
     smearing contrib. (-TS)   =      -0.00051861 Ry
     internal energy E=F+TS    =    -451.87416455 Ry

     The total energy is F=E-TS. E is the sum of the following terms:
     one-electron contribution =    -190.86565939 Ry
     hartree contribution      =     107.73678619 Ry
     xc contribution           =     -55.04092667 Ry
     ewald contribution        =    -237.56942184 Ry
     one-center paw contrib.   =     -76.13494283 Ry

     convergence has been achieved in   6 iterations

     negative rho (up, down):  7.848E-04 0.000E+00

     Forces acting on atoms (cartesian axes, Ry/au):

     atom    1 type  2   force =     0.00071353    0.00071353    0.00071353
     atom    2 type  1   force =     0.00044328    0.00044328    0.00044328
     atom    3 type  3   force =     0.00039608   -0.00077645   -0.00077645
     atom    4 type  3   force =    -0.00077645    0.00039608   -0.00077645
     atom    5 type  3   force =    -0.00077645   -0.00077645    0.00039608

     Total force =     0.002491     Total SCF correction =     0.000015


     Computing stress (Cartesian axis) and pressure


     negative rho (up, down):  7.848E-04 0.000E+00
          total   stress  (Ry/bohr**3)                   (kbar)     P=       -0.26
  -0.00000177   0.00000060   0.00000060           -0.26        0.09        0.09
   0.00000060  -0.00000177   0.00000060            0.09       -0.26        0.09
   0.00000060   0.00000060  -0.00000177            0.09        0.09       -0.26

     Energy error            =      7.4E-06 Ry
     Gradient error          =      7.8E-04 Ry/Bohr
     Cell gradient error     =      2.6E-01 kbar

     bfgs converged in   6 scf cycles and   5 bfgs steps
     (criteria: energy <  1.0E-04 Ry, force <  1.0E-03 Ry/Bohr, cell <  5.0E-01 kbar)

     End of BFGS Geometry Optimization

     Final enthalpy           =    -451.8746831523 Ry

     File ./outputs/TiFe.bfgs deleted, as requested
Begin final coordinates
     new unit-cell volume =    260.71462 a.u.^3 (    38.63392 Ang^3 )
     density =      4.58760 g/cm^3

CELL_PARAMETERS (alat=  5.55330037)
   1.150369355   0.000125024   0.000125024
   0.000125024   1.150369355   0.000125024
   0.000125024   0.000125024   1.150369355

ATOMIC_POSITIONS (crystal)
Fe               0.5029578477        0.5029578477        0.5029578477
Ti               0.0004840787        0.0004840787        0.0004840787
H                0.5004607148       -0.0005783206       -0.0005783206
H               -0.0005783206        0.5004607148       -0.0005783206
H               -0.0005783206       -0.0005783206        0.5004607148
End final coordinates



     Writing config-only to output data dir ./outputs/TiFe.save/ :
     XML data file
     Final scf calculation at the relaxed structure.
     The G-vectors are recalculated for the final unit cell
     Results may differ from those at the preceding step.

     Parallelization info
     --------------------
     sticks:   dense  smooth     PW     G-vecs:    dense   smooth      PW
     Min         455     226     64                20616     7264    1103
     Max         456     227     66                20617     7265    1104
     Sum        3641    1813    517               164931    58119    8829

     Using Slab Decomposition



     bravais-lattice index     =            0
     lattice parameter (alat)  =       5.5533  a.u.
     unit-cell volume          =     260.7146 (a.u.)^3
     number of atoms/cell      =            5
     number of atomic types    =            3
     number of electrons       =        31.00
     number of Kohn-Sham states=           20
     kinetic-energy cutoff     =     140.0000  Ry
     charge density cutoff     =    1120.0000  Ry
     scf convergence threshold =      1.0E-10
     mixing beta               =       0.7000
     number of iterations used =            8  plain     mixing
     press convergence thresh. =      5.0E-01
     Exchange-correlation= PBE
                           (   1   4   3   4   0   0   0)

     celldm(1)=   5.553300  celldm(2)=   0.000000  celldm(3)=   0.000000
     celldm(4)=   0.000000  celldm(5)=   0.000000  celldm(6)=   0.000000

     crystal axes: (cart. coord. in units of alat)
               a(1) = (   1.150369   0.000125   0.000125 )  
               a(2) = (   0.000125   1.150369   0.000125 )  
               a(3) = (   0.000125   0.000125   1.150369 )  

     reciprocal axes: (cart. coord. in units 2 pi/alat)
               b(1) = (  0.869286 -0.000094 -0.000094 )  
               b(2) = ( -0.000094  0.869286 -0.000094 )  
               b(3) = ( -0.000094 -0.000094  0.869286 )  


     PseudoPot. # 1 for Ti read from file:
     /vscmnt/antwerpen_storage_home/_user_antwerpen/211/vsc21140/pseudos/ti_pbe_v1.4.uspp.F.UPF
     MD5 check sum: 88a00a6731bd790ddea75d31a80cb452
     Pseudo is Ultrasoft + core correction, Zval = 12.0
     Generated by new atomic code, or converted to UPF format
     Using radial grid of  851 points,  6 beta functions with: 
                l(1) =   0
                l(2) =   0
                l(3) =   1
                l(4) =   1
                l(5) =   2
                l(6) =   2
     Q(r) pseudized with  6 coefficients,  rinner =    1.000   1.000   1.000
                                                       1.000   1.000

     PseudoPot. # 2 for Fe read from file:
     /vscmnt/antwerpen_storage_home/_user_antwerpen/211/vsc21140/pseudos/Fe.pbe-spn-kjpaw_psl.0.2.1.UPF
     MD5 check sum: e86618425769142926afa95317d90200
     Pseudo is Projector augmented-wave + core cor, Zval = 16.0
     Generated using "atomic" code by A. Dal Corso  v.5.0.99 svn rev. 10869
     Shape of augmentation charge: PSQ
     Using radial grid of 1191 points,  6 beta functions with: 
                l(1) =   0
                l(2) =   0
                l(3) =   1
                l(4) =   1
                l(5) =   2
                l(6) =   2
     Q(r) pseudized with 0 coefficients 


     PseudoPot. # 3 for H  read from file:
     /vscmnt/antwerpen_storage_home/_user_antwerpen/211/vsc21140/pseudos/H.pbe-rrkjus_psl.1.0.0.UPF
     MD5 check sum: f52b6d4d1c606e5624b1dc7b2218f220
     Pseudo is Ultrasoft, Zval =  1.0
     Generated using "atomic" code by A. Dal Corso  v.5.1
     Using radial grid of  929 points,  2 beta functions with: 
                l(1) =   0
                l(2) =   0
     Q(r) pseudized with 0 coefficients 


     atomic species   valence    mass     pseudopotential
     Ti               12.00    47.86700     Ti( 1.00)
     Fe               16.00    55.84500     Fe( 1.00)
     H                 1.00     1.00750     H ( 1.00)

      6 Sym. Ops. (no inversion) found



   Cartesian axes

     site n.     atom                  positions (alat units)
         1        Fe     tau(   1) = (   0.5787131   0.5787131   0.5787131  )
         2        Ti     tau(   2) = (   0.0005570   0.0005570   0.0005570  )
         3        H      tau(   3) = (   0.5757145  -0.0006028  -0.0006028  )
         4        H      tau(   4) = (  -0.0006028   0.5757145  -0.0006028  )
         5        H      tau(   5) = (  -0.0006028  -0.0006028   0.5757145  )

     number of k points=   146  Marzari-Vanderbilt smearing, width (Ry)=  0.0050

     Number of k-points >= 100: set verbosity='high' to print them.

     Dense  grid:   164931 G-vectors     FFT dimensions: (  72,  72,  72)

     Smooth grid:    58119 G-vectors     FFT dimensions: (  50,  50,  50)

     Estimated max dynamical RAM per process >     134.04 MB

     Estimated total dynamical RAM >       1.05 GB

     Check: negative core charge=   -0.000004

     Initial potential from superposition of free atoms

     starting charge      29.9995, renormalised to      31.0000

     negative rho (up, down):  1.415E-03 0.000E+00
     Starting wfcs are   26 randomized atomic wfcs
     Checking if some PAW data can be deallocated... 

     total cpu time spent up to now is      322.4 secs

     per-process dynamical memory:   180.5 Mb

     Self-consistent Calculation

     iteration #  1     ecut=   140.00 Ry     beta= 0.70
     Davidson diagonalization with overlap
     c_bands:  4 eigenvalues not converged
     c_bands:  2 eigenvalues not converged
     c_bands:  1 eigenvalues not converged
     c_bands:  2 eigenvalues not converged
     c_bands:  2 eigenvalues not converged
     c_bands:  2 eigenvalues not converged
     c_bands:  2 eigenvalues not converged
     c_bands:  1 eigenvalues not converged
     c_bands:  1 eigenvalues not converged
     c_bands:  2 eigenvalues not converged
     c_bands:  2 eigenvalues not converged
     c_bands:  2 eigenvalues not converged
     c_bands:  1 eigenvalues not converged
     c_bands:  1 eigenvalues not converged
     c_bands:  2 eigenvalues not converged
     c_bands:  2 eigenvalues not converged
     c_bands:  2 eigenvalues not converged
     c_bands:  2 eigenvalues not converged
     c_bands:  2 eigenvalues not converged
     c_bands:  1 eigenvalues not converged
     c_bands:  1 eigenvalues not converged
     c_bands:  1 eigenvalues not converged
     c_bands:  2 eigenvalues not converged
     c_bands:  1 eigenvalues not converged
     c_bands:  1 eigenvalues not converged
     c_bands:  2 eigenvalues not converged
     c_bands:  1 eigenvalues not converged
     c_bands:  1 eigenvalues not converged
     c_bands:  1 eigenvalues not converged
     c_bands:  1 eigenvalues not converged
     c_bands:  2 eigenvalues not converged
     c_bands:  1 eigenvalues not converged
     c_bands:  2 eigenvalues not converged
     c_bands:  1 eigenvalues not converged
     c_bands:  1 eigenvalues not converged
     c_bands:  2 eigenvalues not converged
     c_bands:  2 eigenvalues not converged
     c_bands:  1 eigenvalues not converged
     c_bands:  2 eigenvalues not converged
     c_bands:  2 eigenvalues not converged
     c_bands:  2 eigenvalues not converged
     c_bands:  1 eigenvalues not converged
     c_bands:  1 eigenvalues not converged
     c_bands:  1 eigenvalues not converged
     c_bands:  2 eigenvalues not converged
     c_bands:  2 eigenvalues not converged
     c_bands:  1 eigenvalues not converged
     c_bands:  2 eigenvalues not converged
     c_bands:  2 eigenvalues not converged
     c_bands:  2 eigenvalues not converged
     c_bands:  1 eigenvalues not converged
     c_bands:  1 eigenvalues not converged
     c_bands:  1 eigenvalues not converged
     c_bands:  1 eigenvalues not converged
     c_bands:  2 eigenvalues not converged
     c_bands:  2 eigenvalues not converged
     c_bands:  2 eigenvalues not converged
     c_bands:  1 eigenvalues not converged
     c_bands:  3 eigenvalues not converged
     c_bands:  2 eigenvalues not converged
     c_bands:  2 eigenvalues not converged
     c_bands:  2 eigenvalues not converged
     c_bands:  1 eigenvalues not converged
     c_bands:  1 eigenvalues not converged
     c_bands:  1 eigenvalues not converged
     c_bands:  1 eigenvalues not converged
     c_bands:  1 eigenvalues not converged
     c_bands:  1 eigenvalues not converged
     c_bands:  1 eigenvalues not converged
     c_bands:  1 eigenvalues not converged
     c_bands:  2 eigenvalues not converged
     c_bands:  1 eigenvalues not converged
     c_bands:  1 eigenvalues not converged
     c_bands:  1 eigenvalues not converged
     c_bands:  1 eigenvalues not converged
     c_bands:  1 eigenvalues not converged
     c_bands:  1 eigenvalues not converged
     c_bands:  2 eigenvalues not converged
     c_bands:  1 eigenvalues not converged
     c_bands:  1 eigenvalues not converged
     c_bands:  1 eigenvalues not converged
     c_bands:  1 eigenvalues not converged
     c_bands:  4 eigenvalues not converged
     c_bands:  2 eigenvalues not converged
     c_bands:  1 eigenvalues not converged
     c_bands:  1 eigenvalues not converged
     c_bands:  1 eigenvalues not converged
     c_bands:  1 eigenvalues not converged
     c_bands:  1 eigenvalues not converged
     c_bands:  1 eigenvalues not converged
     c_bands:  1 eigenvalues not converged
     c_bands:  1 eigenvalues not converged
     c_bands:  1 eigenvalues not converged
     c_bands:  1 eigenvalues not converged
     c_bands:  1 eigenvalues not converged
     c_bands:  2 eigenvalues not converged
     c_bands:  3 eigenvalues not converged
     c_bands:  2 eigenvalues not converged
     c_bands:  2 eigenvalues not converged
     c_bands:  2 eigenvalues not converged
     ethr =  1.00E-06,  avg # of iterations = 19.3

     negative rho (up, down):  2.926E-04 0.000E+00

     total cpu time spent up to now is      340.1 secs

     total energy              =    -427.58097594 Ry
     estimated scf accuracy    <      30.31175056 Ry

     iteration #  2     ecut=   140.00 Ry     beta= 0.70
     Davidson diagonalization with overlap
     ethr =  1.00E-02,  avg # of iterations =  7.7

     total cpu time spent up to now is      347.7 secs

     total energy              =    -442.38753319 Ry
     estimated scf accuracy    <     153.45473144 Ry

     iteration #  3     ecut=   140.00 Ry     beta= 0.70
     Davidson diagonalization with overlap
     ethr =  1.00E-02,  avg # of iterations =  3.2

     total cpu time spent up to now is      352.6 secs

     total energy              =    -454.66479291 Ry
     estimated scf accuracy    <      23.41026315 Ry

     iteration #  4     ecut=   140.00 Ry     beta= 0.70
     Davidson diagonalization with overlap
     ethr =  1.00E-02,  avg # of iterations =  1.4

     negative rho (up, down):  5.201E-05 0.000E+00

     total cpu time spent up to now is      355.9 secs

     total energy              =    -452.37784876 Ry
     estimated scf accuracy    <      15.85596986 Ry

     iteration #  5     ecut=   140.00 Ry     beta= 0.70
     Davidson diagonalization with overlap
     ethr =  1.00E-02,  avg # of iterations =  2.1
     Minimization algorithm failed to find Fermi energy: reverting to bisection
     Possible cause: smearing is larger than the electronic band-gap.

     negative rho (up, down):  2.557E-04 0.000E+00

     total cpu time spent up to now is      359.4 secs

     total energy              =    -452.19723346 Ry
     estimated scf accuracy    <       6.01870384 Ry

     iteration #  6     ecut=   140.00 Ry     beta= 0.70
     Davidson diagonalization with overlap
     ethr =  1.00E-02,  avg # of iterations =  1.3

     negative rho (up, down):  1.071E-03 0.000E+00

     total cpu time spent up to now is      362.5 secs

     total energy              =    -451.62175638 Ry
     estimated scf accuracy    <       3.55876346 Ry

     iteration #  7     ecut=   140.00 Ry     beta= 0.70
     Davidson diagonalization with overlap
     ethr =  1.00E-02,  avg # of iterations =  2.6

     negative rho (up, down):  1.071E-03 0.000E+00

     total cpu time spent up to now is      366.1 secs

     total energy              =    -451.85964149 Ry
     estimated scf accuracy    <       0.12640512 Ry

     iteration #  8     ecut=   140.00 Ry     beta= 0.70
     Davidson diagonalization with overlap
     ethr =  4.08E-04,  avg # of iterations =  5.5

     negative rho (up, down):  5.698E-04 0.000E+00

     total cpu time spent up to now is      370.9 secs

     total energy              =    -451.87037783 Ry
     estimated scf accuracy    <       0.07984266 Ry

     iteration #  9     ecut=   140.00 Ry     beta= 0.70
     Davidson diagonalization with overlap
     ethr =  2.58E-04,  avg # of iterations =  4.2

     negative rho (up, down):  6.487E-04 0.000E+00

     total cpu time spent up to now is      375.4 secs

     total energy              =    -451.91647412 Ry
     estimated scf accuracy    <       1.72174601 Ry

     iteration # 10     ecut=   140.00 Ry     beta= 0.70
     Davidson diagonalization with overlap
     ethr =  2.58E-04,  avg # of iterations =  1.2

     negative rho (up, down):  6.944E-04 0.000E+00

     total cpu time spent up to now is      378.5 secs

     total energy              =    -451.83727210 Ry
     estimated scf accuracy    <       0.84372979 Ry

     iteration # 11     ecut=   140.00 Ry     beta= 0.70
     Davidson diagonalization with overlap
     ethr =  2.58E-04,  avg # of iterations =  2.7

     negative rho (up, down):  7.897E-04 0.000E+00

     total cpu time spent up to now is      382.1 secs

     total energy              =    -451.88062483 Ry
     estimated scf accuracy    <       0.02967826 Ry

     iteration # 12     ecut=   140.00 Ry     beta= 0.70
     Davidson diagonalization with overlap
     ethr =  9.57E-05,  avg # of iterations =  2.6

     negative rho (up, down):  8.438E-04 0.000E+00

     total cpu time spent up to now is      385.6 secs

     total energy              =    -451.94790434 Ry
     estimated scf accuracy    <       0.13000035 Ry

     iteration # 13     ecut=   140.00 Ry     beta= 0.70
     Davidson diagonalization with overlap
     ethr =  9.57E-05,  avg # of iterations =  5.2

     negative rho (up, down):  3.776E-04 0.000E+00

     total cpu time spent up to now is      390.3 secs

     total energy              =    -451.18876819 Ry
     estimated scf accuracy    <       5.39358426 Ry

     iteration # 14     ecut=   140.00 Ry     beta= 0.70
     Davidson diagonalization with overlap
     ethr =  9.57E-05,  avg # of iterations =  6.0

     negative rho (up, down):  3.753E-04 0.000E+00

     total cpu time spent up to now is      396.3 secs

     total energy              =    -452.08123766 Ry
     estimated scf accuracy    <       1.98376387 Ry

     iteration # 15     ecut=   140.00 Ry     beta= 0.70
     Davidson diagonalization with overlap
     ethr =  9.57E-05,  avg # of iterations =  1.0

     negative rho (up, down):  3.299E-04 0.000E+00

     total cpu time spent up to now is      399.4 secs

     total energy              =    -452.11797296 Ry
     estimated scf accuracy    <       1.73705838 Ry

     iteration # 16     ecut=   140.00 Ry     beta= 0.70
     Davidson diagonalization with overlap
     ethr =  9.57E-05,  avg # of iterations =  1.0

     negative rho (up, down):  8.085E-04 0.000E+00

     total cpu time spent up to now is      402.6 secs

     total energy              =    -451.88024746 Ry
     estimated scf accuracy    <       1.91538243 Ry

     iteration # 17     ecut=   140.00 Ry     beta= 0.70
     Davidson diagonalization with overlap
     ethr =  9.57E-05,  avg # of iterations =  5.1

     negative rho (up, down):  9.377E-04 0.000E+00

     total cpu time spent up to now is      408.0 secs

     total energy              =    -451.87248931 Ry
     estimated scf accuracy    <       0.57921685 Ry

     iteration # 18     ecut=   140.00 Ry     beta= 0.70
     Davidson diagonalization with overlap
     ethr =  9.57E-05,  avg # of iterations =  2.7

     negative rho (up, down):  8.402E-04 0.000E+00

     total cpu time spent up to now is      411.6 secs

     total energy              =    -451.87209416 Ry
     estimated scf accuracy    <       0.12812202 Ry

     iteration # 19     ecut=   140.00 Ry     beta= 0.70
     Davidson diagonalization with overlap
     ethr =  9.57E-05,  avg # of iterations =  2.1

     negative rho (up, down):  8.427E-04 0.000E+00

     total cpu time spent up to now is      415.0 secs

     total energy              =    -451.87589782 Ry
     estimated scf accuracy    <       0.01525573 Ry

     iteration # 20     ecut=   140.00 Ry     beta= 0.70
     Davidson diagonalization with overlap
     ethr =  4.92E-05,  avg # of iterations =  1.3

     negative rho (up, down):  8.375E-04 0.000E+00

     total cpu time spent up to now is      418.2 secs

     total energy              =    -451.87665186 Ry
     estimated scf accuracy    <       0.01455733 Ry

     iteration # 21     ecut=   140.00 Ry     beta= 0.70
     Davidson diagonalization with overlap
     ethr =  4.70E-05,  avg # of iterations =  1.0

     negative rho (up, down):  8.562E-04 0.000E+00

     total cpu time spent up to now is      421.3 secs

     total energy              =    -451.87695218 Ry
     estimated scf accuracy    <       0.01897595 Ry

     iteration # 22     ecut=   140.00 Ry     beta= 0.70
     Davidson diagonalization with overlap
     ethr =  4.70E-05,  avg # of iterations =  1.0

     negative rho (up, down):  9.122E-04 0.000E+00

     total cpu time spent up to now is      424.4 secs

     total energy              =    -451.87375907 Ry
     estimated scf accuracy    <       0.02017162 Ry

     iteration # 23     ecut=   140.00 Ry     beta= 0.70
     Davidson diagonalization with overlap
     ethr =  4.70E-05,  avg # of iterations =  1.7

     negative rho (up, down):  9.076E-04 0.000E+00

     total cpu time spent up to now is      427.7 secs

     total energy              =    -451.87508564 Ry
     estimated scf accuracy    <       0.00021463 Ry

     iteration # 24     ecut=   140.00 Ry     beta= 0.70
     Davidson diagonalization with overlap
     ethr =  6.92E-07,  avg # of iterations =  4.9

     negative rho (up, down):  9.053E-04 0.000E+00

     total cpu time spent up to now is      432.7 secs

     total energy              =    -451.87524475 Ry
     estimated scf accuracy    <       0.00000846 Ry

     iteration # 25     ecut=   140.00 Ry     beta= 0.70
     Davidson diagonalization with overlap
     ethr =  2.73E-08,  avg # of iterations =  4.5

     negative rho (up, down):  9.112E-04 0.000E+00

     total cpu time spent up to now is      437.5 secs

     total energy              =    -451.87522851 Ry
     estimated scf accuracy    <       0.00025078 Ry

     iteration # 26     ecut=   140.00 Ry     beta= 0.70
     Davidson diagonalization with overlap
     ethr =  2.73E-08,  avg # of iterations =  4.3

     negative rho (up, down):  9.093E-04 0.000E+00

     total cpu time spent up to now is      442.0 secs

     total energy              =    -451.87524733 Ry
     estimated scf accuracy    <       0.00002240 Ry

     iteration # 27     ecut=   140.00 Ry     beta= 0.70
     Davidson diagonalization with overlap
     ethr =  2.73E-08,  avg # of iterations =  1.7

     negative rho (up, down):  9.093E-04 0.000E+00

     total cpu time spent up to now is      445.3 secs

     total energy              =    -451.87524887 Ry
     estimated scf accuracy    <       0.00000057 Ry

     iteration # 28     ecut=   140.00 Ry     beta= 0.70
     Davidson diagonalization with overlap
     ethr =  1.85E-09,  avg # of iterations =  3.1

     negative rho (up, down):  9.093E-04 0.000E+00

     total cpu time spent up to now is      448.9 secs

     total energy              =    -451.87524892 Ry
     estimated scf accuracy    <       0.00000014 Ry

     iteration # 29     ecut=   140.00 Ry     beta= 0.70
     Davidson diagonalization with overlap
     ethr =  4.44E-10,  avg # of iterations =  3.2

     negative rho (up, down):  9.093E-04 0.000E+00

     total cpu time spent up to now is      452.5 secs

     total energy              =    -451.87524893 Ry
     estimated scf accuracy    <       0.00000001 Ry

     iteration # 30     ecut=   140.00 Ry     beta= 0.70
     Davidson diagonalization with overlap
     ethr =  4.77E-11,  avg # of iterations =  4.2

     negative rho (up, down):  9.093E-04 0.000E+00

     total cpu time spent up to now is      456.7 secs

     total energy              =    -451.87524894 Ry
     estimated scf accuracy    <       0.00000001 Ry

     iteration # 31     ecut=   140.00 Ry     beta= 0.70
     Davidson diagonalization with overlap
     ethr =  3.62E-11,  avg # of iterations =  1.1

     negative rho (up, down):  9.094E-04 0.000E+00

     total cpu time spent up to now is      459.8 secs

     total energy              =    -451.87524894 Ry
     estimated scf accuracy    <          6.1E-09 Ry

     iteration # 32     ecut=   140.00 Ry     beta= 0.70
     Davidson diagonalization with overlap
     ethr =  1.98E-11,  avg # of iterations =  2.1

     negative rho (up, down):  9.094E-04 0.000E+00

     total cpu time spent up to now is      463.3 secs

     total energy              =    -451.87524894 Ry
     estimated scf accuracy    <          1.6E-10 Ry

     iteration # 33     ecut=   140.00 Ry     beta= 0.70
     Davidson diagonalization with overlap
     ethr =  5.23E-13,  avg # of iterations =  4.7

     negative rho (up, down):  9.093E-04 0.000E+00

     total cpu time spent up to now is      468.0 secs

     End of self-consistent calculation

     Number of k-points >= 100: set verbosity='high' to print the bands.

     the Fermi energy is    12.0276 ev

!    total energy              =    -451.87524894 Ry
     estimated scf accuracy    <          3.4E-11 Ry
     smearing contrib. (-TS)   =      -0.00051873 Ry
     internal energy E=F+TS    =    -451.87473021 Ry

     The total energy is F=E-TS. E is the sum of the following terms:
     one-electron contribution =    -190.86503127 Ry
     hartree contribution      =     107.73622959 Ry
     xc contribution           =     -55.04146861 Ry
     ewald contribution        =    -237.56942184 Ry
     one-center paw contrib.   =     -76.13503808 Ry

     convergence has been achieved in  33 iterations

     negative rho (up, down):  9.093E-04 0.000E+00

     Forces acting on atoms (cartesian axes, Ry/au):

     atom    1 type  2   force =     0.00070653    0.00070653    0.00070653
     atom    2 type  1   force =     0.00044596    0.00044596    0.00044596
     atom    3 type  3   force =     0.00039768   -0.00077509   -0.00077509
     atom    4 type  3   force =    -0.00077509    0.00039768   -0.00077509
     atom    5 type  3   force =    -0.00077509   -0.00077509    0.00039768

     Total force =     0.002485     Total SCF correction =     0.000001


     Computing stress (Cartesian axis) and pressure


     negative rho (up, down):  9.093E-04 0.000E+00
          total   stress  (Ry/bohr**3)                   (kbar)     P=        0.22
   0.00000147   0.00000061   0.00000061            0.22        0.09        0.09
   0.00000061   0.00000147   0.00000061            0.09        0.22        0.09
   0.00000061   0.00000061   0.00000147            0.09        0.09        0.22


     Writing all to output data dir ./outputs/TiFe.save/ :
     XML data file
     init_run     :      4.81s CPU      5.14s WALL (       2 calls)
     electrons    :    438.82s CPU    450.28s WALL (       7 calls)
     update_pot   :      0.54s CPU      0.62s WALL (       5 calls)
     forces       :      2.00s CPU      2.09s WALL (       7 calls)
     stress       :      9.79s CPU     10.06s WALL (       7 calls)

     Called by init_run:
     wfcinit      :      2.78s CPU      2.92s WALL (       2 calls)
     potinit      :      0.50s CPU      0.56s WALL (       2 calls)
     hinit0       :      1.15s CPU      1.24s WALL (       2 calls)

     Called by electrons:
     c_bands      :    358.37s CPU    364.90s WALL (     118 calls)
     sum_band     :     59.99s CPU     62.31s WALL (     118 calls)
     v_of_rho     :      1.51s CPU      1.63s WALL (     124 calls)
     newd         :      8.76s CPU     10.21s WALL (     124 calls)
     PAW_pot      :     11.41s CPU     12.60s WALL (     129 calls)
     mix_rho      :      0.20s CPU      0.22s WALL (     118 calls)

     Called by c_bands:
     init_us_2    :      8.41s CPU      8.64s WALL (   37522 calls)
     cegterg      :    344.72s CPU    350.71s WALL (   17228 calls)

     Called by *egterg:
     cdiaghg      :     30.16s CPU     30.69s WALL (   77987 calls)
     h_psi        :    266.87s CPU    271.80s WALL (   79155 calls)
     s_psi        :      7.57s CPU      7.71s WALL (   79155 calls)
     g_psi        :      1.54s CPU      1.56s WALL (   61635 calls)

     Called by h_psi:
     h_psi:calbec :     10.80s CPU     11.00s WALL (   79155 calls)
     vloc_psi     :    247.23s CPU    251.81s WALL (   79155 calls)
     add_vuspsi   :      7.74s CPU      7.91s WALL (   79155 calls)

     General routines
     calbec       :     16.73s CPU     17.05s WALL (  114487 calls)
     fft          :      1.73s CPU      1.92s WALL (    1779 calls)
     ffts         :      0.31s CPU      0.32s WALL (     242 calls)
     fftw         :    249.25s CPU    253.57s WALL ( 2361852 calls)
     interpolate  :      0.36s CPU      0.38s WALL (     124 calls)

     Parallel routines

     PWSCF        :    457.33s CPU    470.47s WALL


   This run was terminated on:  16:56:36   5Nov2025            

=------------------------------------------------------------------------------=
   JOB DONE.
=------------------------------------------------------------------------------=
