
     Program PWSCF v.7.4 starts on 27Oct2025 at 16: 4:58 

     This program is part of the open-source Quantum ESPRESSO suite
     for quantum simulation of materials; please cite
         "P. Giannozzi et al., J. Phys.:Condens. Matter 21 395502 (2009);
         "P. Giannozzi et al., J. Phys.:Condens. Matter 29 465901 (2017);
         "P. Giannozzi et al., J. Chem. Phys. 152 154105 (2020);
          URL http://www.quantum-espresso.org", 
     in publications or presentations arising from this work. More details at
     http://www.quantum-espresso.org/quote

     Parallel version (MPI & OpenMP), running on      16 processor cores
     Number of MPI processes:                16
     Threads/MPI process:                     1

     MPI processes distributed on     1 nodes
     227197 MiB available memory on the printing compute node when the environment starts

     Reading input from TiFe2_ecutrho_convergence/TiFe2_factor2.in

     Current dimensions of program PWSCF are:
     Max number of different atomic species (ntypx) = 10
     Max number of k-points (npk) =  40000
     Max angular momentum in pseudopotentials (lmaxx) =  4
     file Fe.pbe-spn-kjpaw_psl.0.2.1.UPF: wavefunction(s)  3D renormalized

     IMPORTANT: XC functional enforced from input :
     Exchange-correlation= PBE
                           (   1   4   3   4   0   0   0)
     Any further DFT definition will be discarded
     Please, verify this is what you really want

     Message from routine set_cutoff:
     ecutrho < 4*ecutwfc, are you sure?
     Message from routine setup:
     using ibrav=0 with symmetry is DISCOURAGED, use correct ibrav instead

     R & G space division:  proc/nbgrp/npool/nimage =      16
     Subspace diagonalization in iterative solution of the eigenvalue problem:
     a serial algorithm will be used


     Parallelization info
     --------------------
     sticks:   dense  smooth     PW     G-vecs:    dense   smooth      PW
     Min          64      64     36                 2740     2740    1138
     Max          65      65     37                 2749     2749    1143
     Sum        1039    1039    583                43929    43929   18233

     Using Slab Decomposition



     bravais-lattice index     =            0
     lattice parameter (alat)  =       9.1568  a.u.
     unit-cell volume          =    1075.5644 (a.u.)^3
     number of atoms/cell      =           12
     number of atomic types    =            2
     number of electrons       =       176.00
     number of Kohn-Sham states=          106
     kinetic-energy cutoff     =      90.0000  Ry
     charge density cutoff     =     180.0000  Ry
     scf convergence threshold =      1.0E-08
     mixing beta               =       0.7000
     number of iterations used =            8  plain     mixing
     Exchange-correlation= PBE
                           (   1   4   3   4   0   0   0)

     celldm(1)=   9.156781  celldm(2)=   0.000000  celldm(3)=   0.000000
     celldm(4)=   0.000000  celldm(5)=   0.000000  celldm(6)=   0.000000

     crystal axes: (cart. coord. in units of alat)
               a(1) = (   1.000000   0.000000   0.000000 )  
               a(2) = (  -0.500000   0.866025   0.000000 )  
               a(3) = (   0.000000   0.000000   1.617623 )  

     reciprocal axes: (cart. coord. in units 2 pi/alat)
               b(1) = (  1.000000  0.577350 -0.000000 )  
               b(2) = (  0.000000  1.154701  0.000000 )  
               b(3) = (  0.000000 -0.000000  0.618191 )  


     PseudoPot. # 1 for Fe read from file:
     ./Fe.pbe-spn-kjpaw_psl.0.2.1.UPF
     MD5 check sum: e86618425769142926afa95317d90200
     Pseudo is Projector augmented-wave + core cor, Zval = 16.0
     Generated using "atomic" code by A. Dal Corso  v.5.0.99 svn rev. 10869
     Shape of augmentation charge: PSQ
     Using radial grid of 1191 points,  6 beta functions with: 
                l(1) =   0
                l(2) =   0
                l(3) =   1
                l(4) =   1
                l(5) =   2
                l(6) =   2
     Q(r) pseudized with 0 coefficients 


     PseudoPot. # 2 for Ti read from file:
     ./Ti_pbe_v1.4.uspp.F.UPF
     MD5 check sum: 88a00a6731bd790ddea75d31a80cb452
     Pseudo is Ultrasoft + core correction, Zval = 12.0
     Generated by new atomic code, or converted to UPF format
     Using radial grid of  851 points,  6 beta functions with: 
                l(1) =   0
                l(2) =   0
                l(3) =   1
                l(4) =   1
                l(5) =   2
                l(6) =   2
     Q(r) pseudized with  6 coefficients,  rinner =    1.000   1.000   1.000
                                                       1.000   1.000

     atomic species   valence    mass     pseudopotential
     Fe               16.00    55.84500     Fe( 1.00)
     Ti               12.00    47.86700     Ti( 1.00)

     24 Sym. Ops., with inversion, found (12 have fractional translation)



   Cartesian axes

     site n.     atom                  positions (alat units)
         1        Fe     tau(   1) = (   0.7465670   0.1463196   0.4044057  )
         2        Fe     tau(   2) = (  -0.2465670   0.7197058   1.2132171  )
         3        Fe     tau(   3) = (  -0.0000000   0.2926392   1.2132171  )
         4        Fe     tau(   4) = (   0.2534330   0.1463196   0.4044057  )
         5        Fe     tau(   5) = (   0.5000000   0.5733862   0.4044057  )
         6        Fe     tau(   6) = (   0.2465670   0.7197058   1.2132171  )
         7        Fe     tau(   7) = (   0.0000000   0.0000000   0.0000000  )
         8        Fe     tau(   8) = (   0.0000000   0.0000000   0.8088114  )
         9        Ti     tau(   9) = (   0.5000000   0.2886751   1.5200090  )
        10        Ti     tau(  10) = (  -0.0000000   0.5773503   0.7111976  )
        11        Ti     tau(  11) = (  -0.0000000   0.5773503   0.0976138  )
        12        Ti     tau(  12) = (   0.5000000   0.2886751   0.9064252  )

     number of k points=    28  Marzari-Vanderbilt smearing, width (Ry)=  0.0050
                       cart. coord. in units 2pi/alat
        k(    1) = (   0.0000000   0.0000000   0.0000000), wk =   0.0092593
        k(    2) = (   0.0000000   0.0000000   0.1030318), wk =   0.0185185
        k(    3) = (   0.0000000   0.0000000   0.2060637), wk =   0.0185185
        k(    4) = (   0.0000000   0.0000000  -0.3090955), wk =   0.0092593
        k(    5) = (   0.0000000   0.1924501   0.0000000), wk =   0.0555556
        k(    6) = (   0.0000000   0.1924501   0.1030318), wk =   0.1111111
        k(    7) = (   0.0000000   0.1924501   0.2060637), wk =   0.1111111
        k(    8) = (   0.0000000   0.1924501  -0.3090955), wk =   0.0555556
        k(    9) = (   0.0000000   0.3849002   0.0000000), wk =   0.0555556
        k(   10) = (   0.0000000   0.3849002   0.1030318), wk =   0.1111111
        k(   11) = (   0.0000000   0.3849002   0.2060637), wk =   0.1111111
        k(   12) = (   0.0000000   0.3849002  -0.3090955), wk =   0.0555556
        k(   13) = (   0.0000000  -0.5773503   0.0000000), wk =   0.0277778
        k(   14) = (   0.0000000  -0.5773503   0.1030318), wk =   0.0555556
        k(   15) = (   0.0000000  -0.5773503   0.2060637), wk =   0.0555556
        k(   16) = (   0.0000000  -0.5773503  -0.3090955), wk =   0.0277778
        k(   17) = (   0.1666667   0.2886751   0.0000000), wk =   0.0555556
        k(   18) = (   0.1666667   0.2886751   0.1030318), wk =   0.1111111
        k(   19) = (   0.1666667   0.2886751   0.2060637), wk =   0.1111111
        k(   20) = (   0.1666667   0.2886751  -0.3090955), wk =   0.0555556
        k(   21) = (   0.1666667   0.4811252   0.0000000), wk =   0.1111111
        k(   22) = (   0.1666667   0.4811252   0.1030318), wk =   0.2222222
        k(   23) = (   0.1666667   0.4811252   0.2060637), wk =   0.2222222
        k(   24) = (   0.1666667   0.4811252  -0.3090955), wk =   0.1111111
        k(   25) = (   0.3333333   0.5773503   0.0000000), wk =   0.0185185
        k(   26) = (   0.3333333   0.5773503   0.1030318), wk =   0.0370370
        k(   27) = (   0.3333333   0.5773503   0.2060637), wk =   0.0370370
        k(   28) = (   0.3333333   0.5773503  -0.3090955), wk =   0.0185185

     Dense  grid:    43929 G-vectors     FFT dimensions: (  40,  40,  64)

     Estimated max dynamical RAM per process >      64.28 MB

     Estimated total dynamical RAM >       1.00 GB

     Check: negative core charge=   -0.001484

     Initial potential from superposition of free atoms

     starting charge     171.9963, renormalised to     176.0000

     negative rho (up, down):  5.527E-03 0.000E+00
     Starting wfcs are  144 randomized atomic wfcs
     Checking if some PAW data can be deallocated... 

     total cpu time spent up to now is        3.2 secs

     per-process dynamical memory:   169.2 Mb

     Self-consistent Calculation

     iteration #  1     ecut=    90.00 Ry     beta= 0.70
     Davidson diagonalization with overlap
     ethr =  1.00E-02,  avg # of iterations =  2.0

     negative rho (up, down):  2.897E-03 0.000E+00

     total cpu time spent up to now is        8.7 secs

     total energy              =   -3015.64105244 Ry
     estimated scf accuracy    <     118.54001598 Ry

     iteration #  2     ecut=    90.00 Ry     beta= 0.70
     Davidson diagonalization with overlap
     ethr =  1.00E-02,  avg # of iterations =  6.8

     total cpu time spent up to now is       21.0 secs

     total energy              =   -3076.77334876 Ry
     estimated scf accuracy    <     706.72162462 Ry

     iteration #  3     ecut=    90.00 Ry     beta= 0.70
     Davidson diagonalization with overlap
     ethr =  1.00E-02,  avg # of iterations =  5.3

     total cpu time spent up to now is       30.3 secs

     total energy              =   -3121.76825348 Ry
     estimated scf accuracy    <      92.24690816 Ry

     iteration #  4     ecut=    90.00 Ry     beta= 0.70
     Davidson diagonalization with overlap
     ethr =  1.00E-02,  avg # of iterations =  1.1

     total cpu time spent up to now is       34.6 secs

     total energy              =   -3117.18156135 Ry
     estimated scf accuracy    <      55.99005405 Ry

     iteration #  5     ecut=    90.00 Ry     beta= 0.70
     Davidson diagonalization with overlap
     ethr =  1.00E-02,  avg # of iterations =  1.8

     total cpu time spent up to now is       39.2 secs

     total energy              =   -3115.64896012 Ry
     estimated scf accuracy    <      43.93796109 Ry

     iteration #  6     ecut=    90.00 Ry     beta= 0.70
     Davidson diagonalization with overlap
     ethr =  1.00E-02,  avg # of iterations =  1.0

     total cpu time spent up to now is       43.4 secs

     total energy              =   -3114.02162213 Ry
     estimated scf accuracy    <      26.95452092 Ry

     iteration #  7     ecut=    90.00 Ry     beta= 0.70
     Davidson diagonalization with overlap
     ethr =  1.00E-02,  avg # of iterations =  1.0

     total cpu time spent up to now is       47.6 secs

     total energy              =   -3111.60491786 Ry
     estimated scf accuracy    <      18.69292600 Ry

     iteration #  8     ecut=    90.00 Ry     beta= 0.70
     Davidson diagonalization with overlap
     ethr =  1.00E-02,  avg # of iterations =  1.0

     total cpu time spent up to now is       51.8 secs

     total energy              =   -3111.79491948 Ry
     estimated scf accuracy    <       6.09742121 Ry

     iteration #  9     ecut=    90.00 Ry     beta= 0.70
     Davidson diagonalization with overlap
     ethr =  3.46E-03,  avg # of iterations =  1.9

     total cpu time spent up to now is       56.6 secs

     total energy              =   -3111.56969042 Ry
     estimated scf accuracy    <       4.39802667 Ry

     iteration # 10     ecut=    90.00 Ry     beta= 0.70
     Davidson diagonalization with overlap
     ethr =  2.50E-03,  avg # of iterations =  1.9

     negative rho (up, down):  4.336E-03 0.000E+00

     total cpu time spent up to now is       61.4 secs

     total energy              =   -3111.25152573 Ry
     estimated scf accuracy    <       1.57486034 Ry

     iteration # 11     ecut=    90.00 Ry     beta= 0.70
     Davidson diagonalization with overlap
     ethr =  8.95E-04,  avg # of iterations =  5.5

     negative rho (up, down):  1.773E-03 0.000E+00

     total cpu time spent up to now is       69.7 secs

     total energy              =   -3111.60654798 Ry
     estimated scf accuracy    <       6.66390062 Ry

     iteration # 12     ecut=    90.00 Ry     beta= 0.70
     Davidson diagonalization with overlap
     ethr =  8.95E-04,  avg # of iterations =  1.1

     total cpu time spent up to now is       73.9 secs

     total energy              =   -3111.46746117 Ry
     estimated scf accuracy    <       1.21170922 Ry

     iteration # 13     ecut=    90.00 Ry     beta= 0.70
     Davidson diagonalization with overlap
     ethr =  6.88E-04,  avg # of iterations =  3.4

     total cpu time spent up to now is       80.0 secs

     total energy              =   -3111.72850780 Ry
     estimated scf accuracy    <       1.51068918 Ry

     iteration # 14     ecut=    90.00 Ry     beta= 0.70
     Davidson diagonalization with overlap
     ethr =  6.88E-04,  avg # of iterations =  1.0

     negative rho (up, down):  5.876E-04 0.000E+00

     total cpu time spent up to now is       84.2 secs

     total energy              =   -3111.66783121 Ry
     estimated scf accuracy    <       0.85292927 Ry

     iteration # 15     ecut=    90.00 Ry     beta= 0.70
     Davidson diagonalization with overlap
     ethr =  4.85E-04,  avg # of iterations =  1.2

     negative rho (up, down):  7.133E-04 0.000E+00

     total cpu time spent up to now is       88.4 secs

     total energy              =   -3111.68514811 Ry
     estimated scf accuracy    <       0.11684475 Ry

     iteration # 16     ecut=    90.00 Ry     beta= 0.70
     Davidson diagonalization with overlap
     ethr =  6.64E-05,  avg # of iterations =  2.2

     negative rho (up, down):  8.589E-04 0.000E+00

     total cpu time spent up to now is       93.2 secs

     total energy              =   -3111.68496023 Ry
     estimated scf accuracy    <       0.06746293 Ry

     iteration # 17     ecut=    90.00 Ry     beta= 0.70
     Davidson diagonalization with overlap
     ethr =  3.83E-05,  avg # of iterations =  1.2

     negative rho (up, down):  1.065E-03 0.000E+00

     total cpu time spent up to now is       97.5 secs

     total energy              =   -3111.68239218 Ry
     estimated scf accuracy    <       0.05281412 Ry

     iteration # 18     ecut=    90.00 Ry     beta= 0.70
     Davidson diagonalization with overlap
     ethr =  3.00E-05,  avg # of iterations =  2.1

     negative rho (up, down):  1.270E-03 0.000E+00

     total cpu time spent up to now is      102.3 secs

     total energy              =   -3111.68191030 Ry
     estimated scf accuracy    <       0.01557896 Ry

     iteration # 19     ecut=    90.00 Ry     beta= 0.70
     Davidson diagonalization with overlap
     c_bands:  1 eigenvalues not converged
     c_bands:  1 eigenvalues not converged
     ethr =  8.85E-06,  avg # of iterations =  6.6

     negative rho (up, down):  1.283E-03 0.000E+00

     total cpu time spent up to now is      109.0 secs

     total energy              =   -3111.68312562 Ry
     estimated scf accuracy    <       0.00013438 Ry

     iteration # 20     ecut=    90.00 Ry     beta= 0.70
     Davidson diagonalization with overlap
     ethr =  7.64E-08,  avg # of iterations =  6.7

     negative rho (up, down):  1.311E-03 0.000E+00

     total cpu time spent up to now is      120.2 secs

     total energy              =   -3111.68338417 Ry
     estimated scf accuracy    <       0.00001721 Ry

     iteration # 21     ecut=    90.00 Ry     beta= 0.70
     Davidson diagonalization with overlap
     ethr =  9.78E-09,  avg # of iterations =  3.0

     negative rho (up, down):  1.311E-03 0.000E+00

     total cpu time spent up to now is      125.6 secs

     total energy              =   -3111.68338549 Ry
     estimated scf accuracy    <       0.00001182 Ry

     iteration # 22     ecut=    90.00 Ry     beta= 0.70
     Davidson diagonalization with overlap
     ethr =  6.71E-09,  avg # of iterations =  1.6

     negative rho (up, down):  1.321E-03 0.000E+00

     total cpu time spent up to now is      130.1 secs

     total energy              =   -3111.68338573 Ry
     estimated scf accuracy    <       0.00000435 Ry

     iteration # 23     ecut=    90.00 Ry     beta= 0.70
     Davidson diagonalization with overlap
     ethr =  2.47E-09,  avg # of iterations =  5.0

     negative rho (up, down):  1.314E-03 0.000E+00

     total cpu time spent up to now is      137.3 secs

     total energy              =   -3111.68338571 Ry
     estimated scf accuracy    <       0.00003161 Ry

     iteration # 24     ecut=    90.00 Ry     beta= 0.70
     Davidson diagonalization with overlap
     ethr =  2.47E-09,  avg # of iterations =  2.5

     negative rho (up, down):  1.312E-03 0.000E+00

     total cpu time spent up to now is      142.4 secs

     total energy              =   -3111.68338626 Ry
     estimated scf accuracy    <       0.00000313 Ry

     iteration # 25     ecut=    90.00 Ry     beta= 0.70
     Davidson diagonalization with overlap
     ethr =  1.78E-09,  avg # of iterations =  2.9

     negative rho (up, down):  1.312E-03 0.000E+00

     total cpu time spent up to now is      147.6 secs

     total energy              =   -3111.68338651 Ry
     estimated scf accuracy    <       0.00000002 Ry

     iteration # 26     ecut=    90.00 Ry     beta= 0.70
     Davidson diagonalization with overlap
     ethr =  1.40E-11,  avg # of iterations =  9.6

     negative rho (up, down):  1.312E-03 0.000E+00

     total cpu time spent up to now is      164.1 secs

     total energy              =   -3111.68338661 Ry
     estimated scf accuracy    <       0.00000043 Ry

     iteration # 27     ecut=    90.00 Ry     beta= 0.70
     Davidson diagonalization with overlap
     ethr =  1.40E-11,  avg # of iterations =  3.8

     negative rho (up, down):  1.313E-03 0.000E+00

     total cpu time spent up to now is      170.6 secs

     total energy              =   -3111.68338661 Ry
     estimated scf accuracy    <       0.00000006 Ry

     iteration # 28     ecut=    90.00 Ry     beta= 0.70
     Davidson diagonalization with overlap
     ethr =  1.40E-11,  avg # of iterations =  3.5

     negative rho (up, down):  1.313E-03 0.000E+00

     total cpu time spent up to now is      176.3 secs

     End of self-consistent calculation

          k = 0.0000 0.0000 0.0000 ( 15507 PWs)   bands (ev):

   -70.9089 -70.8867 -70.8502 -70.8279 -70.8243 -70.8243 -70.8243 -70.8243
   -40.7860 -40.7718 -40.7366 -40.7213 -37.0405 -36.9803 -36.8566 -36.7957
   -36.7957 -36.7764 -36.7764 -36.7729 -36.7729 -36.6943 -36.6765 -36.6765
   -36.6421 -36.6421 -36.5949 -36.5566 -36.5566 -36.5415 -36.5415 -36.5221
   -36.5220 -36.5139 -36.5139 -36.4933 -17.0835 -17.0835 -17.0696 -17.0696
   -17.0666 -17.0651 -16.9268 -16.9237 -16.9110 -16.9110 -16.8965 -16.8965
     8.7764  10.7796  11.5991  12.1463  12.6435  12.7559  12.9174  12.9174
    13.1403  13.1403  13.3371  13.4488  13.5232  13.5232  13.9798  13.9798
    14.0999  14.0999  14.3435  14.4384  14.4384  14.4757  14.4757  14.9172
    14.9172  15.0193  15.5249  15.5249  15.6533  15.6533  15.9542  16.0298
    16.0298  16.0330  16.0330  16.1852  16.1852  16.1947  16.2002  16.2549
    16.2849  16.2849  16.3553  16.4094  16.4094  16.8524  16.8524  16.8657
    17.1418  17.1418  17.4144  17.4144  17.6099  17.6099  17.6968  17.6971
    17.9049  17.9049

          k = 0.0000 0.0000 0.1030 ( 15471 PWs)   bands (ev):

   -70.9078 -70.8890 -70.8479 -70.8290 -70.8243 -70.8243 -70.8243 -70.8243
   -40.7853 -40.7732 -40.7352 -40.7221 -37.0378 -36.9870 -36.8454 -36.7953
   -36.7953 -36.7828 -36.7828 -36.7634 -36.7634 -36.7105 -36.6895 -36.6895
   -36.6292 -36.6292 -36.5814 -36.5608 -36.5608 -36.5415 -36.5415 -36.5209
   -36.5209 -36.5142 -36.5142 -36.4976 -17.0827 -17.0827 -17.0706 -17.0706
   -17.0663 -17.0649 -16.9268 -16.9241 -16.9099 -16.9099 -16.8974 -16.8974
     8.8529  10.4430  11.8736  12.1476  12.5433  12.9308  12.9308  12.9469
    13.1221  13.1221  13.1881  13.5471  13.5507  13.5507  13.9528  13.9528
    14.0875  14.0875  14.3338  14.3338  14.4114  14.6117  14.6117  14.9713
    14.9713  15.0550  15.4527  15.4527  15.5614  15.5614  15.8291  15.9881
    16.0440  16.0440  16.1440  16.1440  16.1761  16.1761  16.1987  16.2508
    16.2921  16.2921  16.3483  16.3483  16.4906  16.9213  16.9213  17.0850
    17.1296  17.1296  17.4080  17.4080  17.6139  17.6139  17.6969  17.6971
    17.8888  17.8888

          k = 0.0000 0.0000 0.2061 ( 15471 PWs)   bands (ev):

   -70.9046 -70.8941 -70.8427 -70.8322 -70.8243 -70.8243 -70.8243 -70.8243
   -40.7832 -40.7763 -40.7318 -40.7244 -37.0299 -37.0019 -36.8179 -36.7941
   -36.7941 -36.7883 -36.7883 -36.7490 -36.7490 -36.7445 -36.7108 -36.7108
   -36.6082 -36.6082 -36.5721 -36.5721 -36.5554 -36.5415 -36.5415 -36.5186
   -36.5186 -36.5150 -36.5150 -36.5101 -17.0802 -17.0802 -17.0733 -17.0733
   -17.0655 -17.0647 -16.9268 -16.9252 -16.9071 -16.9071 -16.8999 -16.8999
     9.0787   9.9150  12.1260  12.1515  12.5949  12.9679  12.9679  12.9975
    13.0767  13.0767  13.2133  13.5650  13.6251  13.6251  13.8551  13.8551
    14.1052  14.1052  14.2369  14.2369  14.6395  14.7976  14.7976  15.0742
    15.0742  15.1454  15.2968  15.2968  15.4184  15.4184  15.6063  15.6138
    16.0770  16.0770  16.1472  16.1472  16.2027  16.2027  16.2096  16.2397
    16.2493  16.2493  16.4596  16.4596  16.7292  16.9336  16.9336  17.1510
    17.1510  17.3730  17.3730  17.5157  17.6671  17.6671  17.6790  17.6969
    17.8393  17.8393

          k = 0.0000 0.0000-0.3091 ( 15500 PWs)   bands (ev):

   -70.8998 -70.8998 -70.8370 -70.8370 -70.8243 -70.8243 -70.8243 -70.8243
   -40.7800 -40.7800 -40.7279 -40.7279 -37.0174 -37.0174 -36.7919 -36.7919
   -36.7919 -36.7919 -36.7824 -36.7824 -36.7312 -36.7312 -36.7312 -36.7312
   -36.5885 -36.5885 -36.5885 -36.5885 -36.5416 -36.5416 -36.5301 -36.5301
   -36.5165 -36.5165 -36.5165 -36.5165 -17.0768 -17.0768 -17.0768 -17.0768
   -17.0649 -17.0649 -16.9262 -16.9262 -16.9035 -16.9035 -16.9035 -16.9035
     9.4411   9.4411  12.1572  12.1572  12.8025  12.8025  13.0205  13.0205
    13.0205  13.0205  13.4411  13.4411  13.7325  13.7325  13.7325  13.7325
    14.1597  14.1597  14.1597  14.1597  14.9994  14.9994  14.9994  14.9994
    15.0112  15.0112  15.2926  15.2926  15.2926  15.2926  15.4394  15.4394
    16.1189  16.1189  16.1189  16.1189  16.1941  16.1941  16.1941  16.1941
    16.2246  16.2246  16.7220  16.7220  16.7220  16.7220  17.0989  17.0989
    17.2821  17.2821  17.2821  17.2821  17.6970  17.6970  17.7588  17.7588
    17.7588  17.7588

          k = 0.0000 0.1925 0.0000 ( 15506 PWs)   bands (ev):

   -70.9054 -70.8831 -70.8502 -70.8366 -70.8279 -70.8243 -70.8243 -70.8192
   -40.7833 -40.7689 -40.7397 -40.7243 -37.0184 -36.9592 -36.8533 -36.7923
   -36.7823 -36.7794 -36.7765 -36.7721 -36.7573 -36.6882 -36.6769 -36.6757
   -36.6488 -36.6421 -36.6104 -36.5600 -36.5566 -36.5535 -36.5523 -36.5397
   -36.5289 -36.5259 -36.5176 -36.4898 -17.0971 -17.0879 -17.0735 -17.0689
   -17.0653 -17.0448 -16.9434 -16.9196 -16.9162 -16.9069 -16.8923 -16.8884
     9.0413  10.9823  11.7738  12.2593  12.6854  12.7525  12.8619  12.9581
    13.0485  13.2977  13.3060  13.5335  13.5762  13.6237  13.9342  14.0333
    14.1023  14.2032  14.3934  14.4310  14.4363  14.4751  14.5115  14.7724
    14.8094  14.8547  15.1636  15.3632  15.3651  15.4133  15.6248  15.7042
    15.8862  15.9799  16.0057  16.0736  16.1302  16.1860  16.2364  16.3208
    16.3486  16.4297  16.4516  16.4790  16.6155  16.7558  16.9448  17.0382
    17.0545  17.1420  17.4259  17.4272  17.4555  17.6636  17.6671  17.6871
    17.7199  18.0493

          k = 0.0000 0.1925 0.1030 ( 15503 PWs)   bands (ev):

   -70.9043 -70.8854 -70.8482 -70.8369 -70.8276 -70.8244 -70.8243 -70.8200
   -40.7826 -40.7703 -40.7382 -40.7251 -37.0158 -36.9662 -36.8426 -36.7916
   -36.7843 -36.7822 -36.7776 -36.7642 -36.7532 -36.7049 -36.6910 -36.6882
   -36.6349 -36.6295 -36.5981 -36.5627 -36.5615 -36.5528 -36.5523 -36.5403
   -36.5275 -36.5247 -36.5178 -36.4932 -17.0957 -17.0870 -17.0746 -17.0729
   -17.0618 -17.0457 -16.9425 -16.9241 -16.9115 -16.9058 -16.8932 -16.8897
     9.1160  10.6593  12.0347  12.2610  12.5904  12.8041  12.9311  12.9774
    13.0820  13.2741  13.2765  13.5056  13.6085  13.6535  13.9273  14.0159
    14.0766  14.1732  14.2867  14.3694  14.4612  14.5948  14.6475  14.8295
    14.8471  14.9019  15.1652  15.3085  15.3241  15.3919  15.6419  15.6853
    15.8092  15.9302  15.9811  16.0456  16.1256  16.1630  16.2421  16.2953
    16.3352  16.4192  16.4295  16.5231  16.6233  16.8123  16.9291  17.0492
    17.0982  17.2325  17.4150  17.4537  17.4602  17.5883  17.7024  17.7186
    17.7478  18.0257

          k = 0.0000 0.1925 0.2061 ( 15491 PWs)   bands (ev):

   -70.9011 -70.8906 -70.8441 -70.8380 -70.8265 -70.8243 -70.8243 -70.8220
   -40.7805 -40.7736 -40.7347 -40.7273 -37.0082 -36.9810 -36.8178 -36.7908
   -36.7874 -36.7817 -36.7795 -36.7505 -36.7425 -36.7379 -36.7125 -36.7083
   -36.6142 -36.6089 -36.5854 -36.5731 -36.5629 -36.5525 -36.5523 -36.5432
   -36.5229 -36.5223 -36.5187 -36.5025 -17.0915 -17.0845 -17.0790 -17.0773
   -17.0571 -17.0484 -16.9396 -16.9298 -16.9051 -16.9030 -16.8958 -16.8933
     9.3361  10.1490  12.2581  12.2754  12.6186  12.8273  12.9546  13.0317
    13.1759  13.1992  13.2603  13.5069  13.6689  13.6906  13.8470  13.9304
    14.0947  14.1636  14.2084  14.2764  14.5873  14.8032  14.8144  14.9083
    14.9705  14.9769  15.1330  15.2199  15.2411  15.3191  15.4799  15.5693
    15.8009  15.9273  15.9806  16.0131  16.0407  16.1510  16.1849  16.2218
    16.3242  16.4182  16.4551  16.6303  16.6852  16.8110  16.8717  16.9586
    17.2076  17.3807  17.4049  17.4652  17.5395  17.6326  17.6852  17.7476
    17.7674  17.9583

          k = 0.0000 0.1925-0.3091 ( 15474 PWs)   bands (ev):

   -70.8963 -70.8963 -70.8404 -70.8404 -70.8245 -70.8245 -70.8243 -70.8243
   -40.7774 -40.7774 -40.7307 -40.7307 -36.9962 -36.9962 -36.7976 -36.7976
   -36.7809 -36.7809 -36.7713 -36.7713 -36.7328 -36.7328 -36.7271 -36.7271
   -36.5958 -36.5958 -36.5894 -36.5894 -36.5523 -36.5523 -36.5508 -36.5508
   -36.5202 -36.5202 -36.5142 -36.5142 -17.0856 -17.0856 -17.0810 -17.0810
   -17.0524 -17.0524 -16.9352 -16.9352 -16.8993 -16.8993 -16.8987 -16.8987
     9.6889   9.6889  12.2781  12.2781  12.7642  12.7642  13.0441  13.0441
    13.1111  13.1111  13.4315  13.4315  13.7325  13.7325  13.8049  13.8049
    14.1498  14.1498  14.2060  14.2060  14.8071  14.8071  14.9521  14.9521
    15.0275  15.0275  15.0970  15.0970  15.2460  15.2460  15.4031  15.4031
    15.9121  15.9121  15.9659  15.9659  16.0500  16.0500  16.1825  16.1825
    16.3714  16.3714  16.6142  16.6142  16.7812  16.7812  16.8148  16.8148
    17.3112  17.3112  17.4792  17.4792  17.6218  17.6218  17.6604  17.6604
    17.8625  17.8625

          k = 0.0000 0.3849 0.0000 ( 15504 PWs)   bands (ev):

   -70.8967 -70.8740 -70.8502 -70.8488 -70.8371 -70.8244 -70.8243 -70.8157
   -40.7761 -40.7613 -40.7475 -40.7319 -36.9656 -36.9101 -36.8464 -36.7868
   -36.7843 -36.7766 -36.7606 -36.7501 -36.7153 -36.6798 -36.6785 -36.6718
   -36.6593 -36.6539 -36.6421 -36.6057 -36.5938 -36.5859 -36.5677 -36.5566
   -36.5379 -36.5281 -36.5207 -36.4833 -17.1056 -17.0962 -17.0809 -17.0779
   -17.0551 -17.0174 -16.9692 -16.9278 -16.9104 -16.8992 -16.8845 -16.8822
     9.7857  11.4853  12.1731  12.2057  12.5438  12.7394  12.7966  13.0810
    13.1525  13.2175  13.7070  13.7100  13.7237  13.7800  13.8866  14.0619
    14.1562  14.2926  14.3610  14.4290  14.4666  14.5116  14.5479  14.5854
    14.6402  14.6821  14.6916  14.9189  14.9314  15.0220  15.1099  15.1878
    15.2296  15.5418  15.8412  16.1163  16.2149  16.2614  16.2792  16.3271
    16.3282  16.4589  16.5520  16.7469  16.7680  16.8658  16.8710  16.9694
    16.9886  17.1500  17.1720  17.4565  17.5349  17.7556  17.7891  17.8173
    17.8597  18.3706

          k = 0.0000 0.3849 0.1030 ( 15519 PWs)   bands (ev):

   -70.8956 -70.8764 -70.8498 -70.8488 -70.8351 -70.8244 -70.8243 -70.8168
   -40.7755 -40.7632 -40.7455 -40.7326 -36.9634 -36.9178 -36.8364 -36.7897
   -36.7810 -36.7746 -36.7570 -36.7514 -36.7144 -36.6986 -36.6930 -36.6812
   -36.6471 -36.6404 -36.6316 -36.6049 -36.5943 -36.5854 -36.5705 -36.5601
   -36.5337 -36.5270 -36.5209 -36.4864 -17.1038 -17.0952 -17.0820 -17.0795
   -17.0537 -17.0215 -16.9652 -16.9305 -16.9077 -16.8981 -16.8854 -16.8837
     9.8541  11.2270  12.1314  12.4701  12.4986  12.7543  12.8276  13.0872
    13.1104  13.2858  13.6106  13.6259  13.7969  13.8583  13.8918  14.0503
    14.1428  14.2490  14.3318  14.4151  14.4433  14.4454  14.5240  14.6273
    14.6874  14.7411  14.7971  14.9225  14.9411  15.0841  15.1094  15.1702
    15.2541  15.5599  15.8414  16.0183  16.1544  16.1819  16.2286  16.2880
    16.3387  16.5114  16.5173  16.7556  16.7815  16.8407  16.8583  16.9716
    17.0107  17.1903  17.3149  17.4077  17.5105  17.6037  17.7814  17.8503
    18.0848  18.3229

          k = 0.0000 0.3849 0.2061 ( 15519 PWs)   bands (ev):

   -70.8924 -70.8817 -70.8493 -70.8489 -70.8303 -70.8244 -70.8243 -70.8199
   -40.7736 -40.7669 -40.7416 -40.7346 -36.9569 -36.9324 -36.8169 -36.7942
   -36.7731 -36.7692 -36.7556 -36.7472 -36.7278 -36.7135 -36.7113 -36.6950
   -36.6332 -36.6278 -36.6148 -36.6004 -36.5962 -36.5835 -36.5784 -36.5688
   -36.5249 -36.5227 -36.5217 -36.4954 -17.0987 -17.0925 -17.0849 -17.0844
   -17.0488 -17.0306 -16.9562 -16.9372 -16.9016 -16.8953 -16.8881 -16.8880
    10.0550  10.7855  12.1815  12.3917  12.7279  12.7950  12.9010  13.0432
    13.1948  13.3352  13.4704  13.5061  13.8821  13.9001  13.9475  14.0411
    14.0865  14.1872  14.3105  14.3400  14.3898  14.4500  14.5963  14.6714
    14.7172  14.7604  14.8523  14.9825  15.0054  15.1007  15.1412  15.1856
    15.3952  15.6406  15.8284  15.8914  15.9890  16.0567  16.0756  16.1348
    16.3820  16.4784  16.5668  16.7599  16.8115  16.8340  16.8354  16.9740
    17.0748  17.2519  17.2906  17.4381  17.5164  17.6345  17.7733  17.9530
    18.1056  18.2194

          k = 0.0000 0.3849-0.3091 ( 15504 PWs)   bands (ev):

   -70.8875 -70.8875 -70.8490 -70.8490 -70.8247 -70.8247 -70.8243 -70.8243
   -40.7707 -40.7707 -40.7377 -40.7377 -36.9462 -36.9462 -36.8018 -36.8018
   -36.7621 -36.7621 -36.7555 -36.7555 -36.7320 -36.7320 -36.7052 -36.7052
   -36.6262 -36.6262 -36.6020 -36.6020 -36.5898 -36.5898 -36.5782 -36.5782
   -36.5230 -36.5230 -36.5085 -36.5085 -17.0915 -17.0915 -17.0888 -17.0888
   -17.0406 -17.0406 -16.9461 -16.9461 -16.8945 -16.8945 -16.8916 -16.8916
    10.3747  10.3747  12.2748  12.2748  12.8116  12.8116  12.9924  12.9924
    13.3218  13.3218  13.3996  13.3996  13.9192  13.9192  13.9850  13.9850
    14.1261  14.1261  14.3437  14.3437  14.3825  14.3825  14.6549  14.6549
    14.7395  14.7395  14.9172  14.9172  15.1016  15.1016  15.1680  15.1680
    15.6533  15.6533  15.8002  15.8002  15.9177  15.9177  16.0193  16.0193
    16.4402  16.4402  16.6705  16.6705  16.7956  16.7956  16.9240  16.9240
    17.1741  17.1741  17.3351  17.3351  17.6725  17.6725  17.8712  17.8712
    18.0913  18.0913

          k = 0.0000-0.5774 0.0000 ( 15546 PWs)   bands (ev):

   -70.8906 -70.8670 -70.8560 -70.8502 -70.8442 -70.8244 -70.8243 -70.8146
   -40.7703 -40.7552 -40.7536 -40.7380 -36.9330 -36.8771 -36.8427 -36.7924
   -36.7863 -36.7766 -36.7296 -36.7276 -36.6949 -36.6784 -36.6732 -36.6701
   -36.6638 -36.6630 -36.6596 -36.6422 -36.6388 -36.6140 -36.5723 -36.5566
   -36.5404 -36.5285 -36.5214 -36.4803 -17.1067 -17.1000 -17.0843 -17.0836
   -17.0486 -17.0045 -16.9820 -16.9347 -16.9049 -16.8956 -16.8815 -16.8808
    10.6170  11.2292  12.1399  12.3254  12.4828  12.8004  12.9560  13.0526
    13.1595  13.3449  13.7424  13.7812  13.8346  14.0518  14.0777  14.1066
    14.1280  14.1842  14.2583  14.4319  14.4576  14.5305  14.5471  14.5555
    14.5982  14.6198  14.6474  14.6777  14.6868  14.7062  14.8225  14.8821
    14.9055  15.2043  15.8903  16.1866  16.1887  16.2506  16.2683  16.3486
    16.3728  16.4275  16.4299  16.6966  16.7655  16.9565  17.0226  17.0844
    17.1833  17.1860  17.2493  17.2729  17.5236  17.6765  17.6801  17.8080
    17.9674  18.3189

          k = 0.0000-0.5774 0.1030 ( 15534 PWs)   bands (ev):

   -70.8895 -70.8693 -70.8559 -70.8528 -70.8392 -70.8244 -70.8243 -70.8158
   -40.7698 -40.7587 -40.7500 -40.7386 -36.9310 -36.8867 -36.8316 -36.7934
   -36.7836 -36.7741 -36.7337 -36.7258 -36.7002 -36.6964 -36.6730 -36.6700
   -36.6653 -36.6641 -36.6417 -36.6411 -36.6388 -36.6092 -36.5754 -36.5602
   -36.5349 -36.5275 -36.5217 -36.4835 -17.1048 -17.0990 -17.0854 -17.0841
   -17.0483 -17.0127 -16.9739 -16.9360 -16.9036 -16.8945 -16.8831 -16.8817
    10.6732  11.2682  11.8970  12.2343  12.6857  12.8167  12.9447  13.0429
    13.1947  13.3457  13.7087  13.7782  13.8381  14.0655  14.1032  14.1203
    14.1378  14.1561  14.2188  14.3629  14.4329  14.4913  14.5497  14.5633
    14.5648  14.5972  14.6282  14.6519  14.7866  14.8102  14.8386  14.9016
    15.0223  15.2720  15.8912  16.1174  16.1219  16.2170  16.2480  16.2584
    16.3335  16.3359  16.6159  16.7670  16.8099  16.8502  16.9297  16.9829
    17.1170  17.2846  17.3164  17.4150  17.4525  17.6366  17.8209  17.8763
    17.9638  18.3078

          k = 0.0000-0.5774 0.2061 ( 15496 PWs)   bands (ev):

   -70.8862 -70.8749 -70.8558 -70.8548 -70.8317 -70.8244 -70.8243 -70.8193
   -40.7683 -40.7626 -40.7461 -40.7402 -36.9250 -36.9019 -36.8143 -36.7963
   -36.7737 -36.7670 -36.7440 -36.7277 -36.7207 -36.7038 -36.6722 -36.6696
   -36.6680 -36.6675 -36.6398 -36.6389 -36.6188 -36.5972 -36.5846 -36.5697
   -36.5255 -36.5224 -36.5215 -36.4924 -17.0996 -17.0963 -17.0885 -17.0870
   -17.0454 -17.0259 -16.9610 -16.9407 -16.8995 -16.8917 -16.8874 -16.8843
    10.8359  11.3017  11.6433  12.0072  12.8115  12.9077  12.9480  13.0523
    13.2962  13.3868  13.6085  13.6289  13.9277  14.0584  14.0667  14.0978
    14.1183  14.1713  14.2624  14.2973  14.4349  14.5115  14.5278  14.5364
    14.5669  14.5909  14.6045  14.6393  14.7890  14.8014  14.9509  14.9614
    15.3149  15.4773  15.8725  15.9328  16.0004  16.0627  16.1202  16.1762
    16.3317  16.3534  16.7116  16.7231  16.8408  16.8751  16.9367  16.9450
    16.9578  17.2962  17.3928  17.4561  17.6033  17.6246  17.9080  18.0012
    18.0254  18.2016

          k = 0.0000-0.5774-0.3091 ( 15528 PWs)   bands (ev):

   -70.8810 -70.8810 -70.8555 -70.8555 -70.8248 -70.8248 -70.8244 -70.8244
   -40.7658 -40.7658 -40.7427 -40.7427 -36.9152 -36.9152 -36.8025 -36.8025
   -36.7562 -36.7562 -36.7541 -36.7541 -36.7127 -36.7127 -36.6708 -36.6708
   -36.6689 -36.6689 -36.6392 -36.6392 -36.5994 -36.5994 -36.5829 -36.5829
   -36.5236 -36.5236 -36.5060 -36.5060 -17.0928 -17.0928 -17.0924 -17.0924
   -17.0376 -17.0376 -16.9493 -16.9493 -16.8935 -16.8935 -16.8879 -16.8879
    11.0822  11.0822  11.7553  11.7553  12.8579  12.8579  13.0499  13.0499
    13.4503  13.4503  13.4832  13.4832  14.0143  14.0143  14.0618  14.0618
    14.1002  14.1002  14.3432  14.3432  14.4776  14.4776  14.5250  14.5250
    14.5517  14.5517  14.6267  14.6267  14.7899  14.7899  14.9904  14.9904
    15.6491  15.6491  15.7292  15.7292  15.9560  15.9560  16.0892  16.0892
    16.3521  16.3521  16.7621  16.7621  16.7912  16.7912  16.9427  16.9427
    17.1117  17.1117  17.4594  17.4594  17.7855  17.7855  17.7987  17.7987
    18.1762  18.1762

          k = 0.1667 0.2887 0.0000 ( 15488 PWs)   bands (ev):

   -70.8992 -70.8767 -70.8502 -70.8457 -70.8345 -70.8244 -70.8243 -70.8163
   -40.7782 -40.7635 -40.7452 -40.7297 -36.9793 -36.9229 -36.8481 -36.7868
   -36.7828 -36.7772 -36.7765 -36.7553 -36.7261 -36.6794 -36.6768 -36.6753
   -36.6573 -36.6432 -36.6416 -36.5987 -36.5705 -36.5644 -36.5575 -36.5557
   -36.5379 -36.5322 -36.5296 -36.4849 -17.1029 -17.0967 -17.0810 -17.0753
   -17.0554 -17.0222 -16.9641 -16.9269 -16.9129 -16.8995 -16.8846 -16.8844
     9.5476  11.3528  12.0766  12.3667  12.6549  12.6942  12.7453  13.0165
    13.1440  13.1649  13.5220  13.6560  13.7160  13.8039  13.8619  14.0635
    14.0855  14.3127  14.3528  14.4387  14.4901  14.5268  14.5760  14.5890
    14.6661  14.7335  14.7759  14.9361  15.0579  15.1752  15.2701  15.4016
    15.4735  15.6234  15.8889  15.9610  16.0648  16.2078  16.3113  16.3568
    16.3574  16.4449  16.6516  16.6888  16.7146  16.7960  16.8876  17.0552
    17.0707  17.2249  17.3695  17.4113  17.4280  17.4353  17.8575  17.9072
    17.9287  17.9952

          k = 0.1667 0.2887 0.1030 ( 15495 PWs)   bands (ev):

   -70.8981 -70.8790 -70.8492 -70.8458 -70.8331 -70.8244 -70.8243 -70.8174
   -40.7776 -40.7652 -40.7434 -40.7304 -36.9770 -36.9303 -36.8382 -36.7881
   -36.7851 -36.7754 -36.7694 -36.7554 -36.7249 -36.6978 -36.6927 -36.6851
   -36.6423 -36.6344 -36.6273 -36.5987 -36.5692 -36.5668 -36.5617 -36.5560
   -36.5365 -36.5319 -36.5275 -36.4879 -17.1012 -17.0957 -17.0821 -17.0771
   -17.0537 -17.0252 -16.9611 -16.9300 -16.9098 -16.8985 -16.8859 -16.8855
     9.6183  11.0595  12.3047  12.3690  12.6520  12.6671  12.7381  13.1279
    13.1400  13.1794  13.4713  13.6055  13.7502  13.8056  13.8735  14.0697
    14.0840  14.2387  14.3178  14.3874  14.4846  14.5215  14.6052  14.6265
    14.7278  14.7665  14.8764  14.9928  15.0373  15.1601  15.3017  15.3919
    15.4480  15.6316  15.8692  15.9018  16.0264  16.1692  16.2770  16.3136
    16.3277  16.4366  16.5410  16.7514  16.7558  16.8437  16.8629  17.0395
    17.1080  17.2749  17.3632  17.4248  17.4587  17.4764  17.7453  17.8822
    17.9518  18.0558

          k = 0.1667 0.2887 0.2061 ( 15507 PWs)   bands (ev):

   -70.8949 -70.8843 -70.8475 -70.8460 -70.8294 -70.8244 -70.8243 -70.8203
   -40.7756 -40.7688 -40.7397 -40.7325 -36.9701 -36.9449 -36.8182 -36.7947
   -36.7781 -36.7708 -36.7634 -36.7505 -36.7289 -36.7214 -36.7140 -36.7004
   -36.6244 -36.6214 -36.6092 -36.5983 -36.5754 -36.5716 -36.5640 -36.5572
   -36.5342 -36.5319 -36.5202 -36.4966 -17.0963 -17.0930 -17.0851 -17.0822
   -17.0488 -17.0326 -16.9538 -16.9367 -16.9035 -16.8957 -16.8901 -16.8881
     9.8262  10.5881  12.3823  12.4825  12.6098  12.6910  12.8640  13.1207
    13.2072  13.2871  13.3727  13.5052  13.8039  13.8127  13.8768  14.0423
    14.1167  14.1674  14.2721  14.2927  14.4681  14.5436  14.6980  14.7264
    14.7954  14.7961  14.9995  15.0184  15.0931  15.1366  15.2685  15.3802
    15.4870  15.6694  15.7886  15.8940  15.9675  16.0433  16.1001  16.1429
    16.3198  16.4261  16.6131  16.7370  16.7926  16.8129  16.8578  16.9781
    17.2148  17.3545  17.3956  17.4530  17.5068  17.5756  17.6774  17.8018
    17.9090  18.0657

          k = 0.1667 0.2887-0.3091 ( 15492 PWs)   bands (ev):

   -70.8901 -70.8901 -70.8465 -70.8465 -70.8246 -70.8246 -70.8243 -70.8243
   -40.7726 -40.7726 -40.7357 -40.7357 -36.9591 -36.9591 -36.8029 -36.8029
   -36.7665 -36.7665 -36.7582 -36.7582 -36.7349 -36.7349 -36.7127 -36.7127
   -36.6163 -36.6163 -36.5977 -36.5977 -36.5805 -36.5805 -36.5598 -36.5598
   -36.5326 -36.5326 -36.5086 -36.5086 -17.0901 -17.0901 -17.0883 -17.0883
   -17.0412 -17.0412 -16.9450 -16.9450 -16.8966 -16.8966 -16.8917 -16.8917
    10.1582  10.1582  12.4214  12.4214  12.6871  12.6871  13.0213  13.0213
    13.2748  13.2748  13.4101  13.4101  13.8152  13.8152  13.9352  13.9352
    14.1577  14.1577  14.2658  14.2658  14.5089  14.5089  14.7554  14.7554
    14.8118  14.8118  15.0503  15.0503  15.1060  15.1060  15.2891  15.2891
    15.6431  15.6431  15.8766  15.8766  15.9071  15.9071  16.0122  16.0122
    16.3798  16.3798  16.6896  16.6896  16.7995  16.7995  16.8885  16.8885
    17.3340  17.3340  17.4132  17.4132  17.6085  17.6085  17.7199  17.7199
    17.9370  17.9370

          k = 0.1667 0.4811 0.0000 ( 15511 PWs)   bands (ev):

   -70.8906 -70.8670 -70.8560 -70.8502 -70.8442 -70.8244 -70.8243 -70.8146
   -40.7703 -40.7551 -40.7536 -40.7381 -36.9255 -36.8728 -36.8426 -36.7994
   -36.7852 -36.7786 -36.7682 -36.7206 -36.6935 -36.6891 -36.6730 -36.6706
   -36.6612 -36.6572 -36.6529 -36.6466 -36.6014 -36.5948 -36.5687 -36.5587
   -36.5515 -36.5395 -36.5306 -36.4804 -17.1069 -17.1011 -17.0887 -17.0845
   -17.0401 -16.9978 -16.9873 -16.9427 -16.9037 -16.8922 -16.8858 -16.8765
    10.4330  11.6601  12.0592  12.4465  12.4703  12.7616  12.8082  12.9928
    13.0288  13.2768  13.7786  13.8388  13.9143  13.9731  13.9777  14.0496
    14.0547  14.1694  14.3356  14.3483  14.3864  14.4615  14.5374  14.5542
    14.6336  14.6385  14.6685  14.6900  14.7696  14.8445  14.9737  15.0036
    15.1165  15.2688  15.7964  15.9116  16.0818  16.0830  16.2108  16.2832
    16.5145  16.5579  16.5765  16.7297  16.7998  16.8553  16.9528  17.0775
    17.2490  17.2635  17.3251  17.3571  17.4361  17.6048  17.8376  17.9177
    18.0355  18.1552

          k = 0.1667 0.4811 0.1030 ( 15506 PWs)   bands (ev):

   -70.8895 -70.8693 -70.8559 -70.8528 -70.8392 -70.8244 -70.8244 -70.8158
   -40.7698 -40.7587 -40.7501 -40.7386 -36.9237 -36.8819 -36.8333 -36.8016
   -36.7816 -36.7758 -36.7648 -36.7245 -36.6991 -36.6970 -36.6835 -36.6784
   -36.6571 -36.6542 -36.6432 -36.6353 -36.6002 -36.5942 -36.5718 -36.5632
   -36.5481 -36.5395 -36.5274 -36.4834 -17.1056 -17.0995 -17.0900 -17.0845
   -17.0404 -17.0087 -16.9766 -16.9431 -16.9031 -16.8911 -16.8872 -16.8775
    10.4939  11.6071  11.8976  12.3905  12.6923  12.7073  12.8226  12.9707
    13.1075  13.3021  13.7233  13.7943  13.9319  13.9533  14.0254  14.0404
    14.0931  14.1804  14.2356  14.2943  14.4011  14.4158  14.5066  14.5757
    14.5839  14.6535  14.6809  14.7340  14.7830  14.9408  14.9999  15.0625
    15.1632  15.3045  15.7916  15.8807  15.9817  16.1092  16.1979  16.2500
    16.3905  16.4661  16.6884  16.7410  16.8172  16.8255  16.9645  17.0999
    17.2098  17.2628  17.3156  17.3941  17.4714  17.5824  17.7776  18.0314
    18.0721  18.1247

          k = 0.1667 0.4811 0.2061 ( 15510 PWs)   bands (ev):

   -70.8862 -70.8749 -70.8558 -70.8547 -70.8317 -70.8244 -70.8244 -70.8193
   -40.7683 -40.7625 -40.7461 -40.7402 -36.9180 -36.8962 -36.8201 -36.8059
   -36.7706 -36.7685 -36.7571 -36.7321 -36.7221 -36.7126 -36.6850 -36.6837
   -36.6565 -36.6552 -36.6243 -36.6201 -36.5981 -36.5911 -36.5802 -36.5724
   -36.5435 -36.5398 -36.5177 -36.4919 -17.1022 -17.0954 -17.0932 -17.0857
   -17.0392 -17.0224 -16.9633 -16.9457 -16.9007 -16.8912 -16.8880 -16.8803
    10.6719  11.3015  11.9221  12.2632  12.6916  12.7775  12.9253  12.9789
    13.2571  13.3677  13.6041  13.6583  13.9522  13.9849  14.0272  14.0497
    14.0992  14.1693  14.1985  14.2749  14.3560  14.4283  14.4776  14.5099
    14.5527  14.6245  14.6914  14.7486  14.8574  14.9800  15.1094  15.1409
    15.3555  15.4582  15.7679  15.7838  15.8559  15.9928  16.1468  16.2064
    16.2716  16.3623  16.7233  16.7607  16.7997  16.8666  16.9863  17.1061
    17.1874  17.2614  17.3614  17.4119  17.4586  17.6038  17.8020  17.9583
    18.0958  18.2460

          k = 0.1667 0.4811-0.3091 ( 15512 PWs)   bands (ev):

   -70.8810 -70.8810 -70.8555 -70.8555 -70.8248 -70.8248 -70.8244 -70.8244
   -40.7658 -40.7658 -40.7428 -40.7428 -36.9088 -36.9088 -36.8115 -36.8115
   -36.7612 -36.7612 -36.7467 -36.7467 -36.7279 -36.7279 -36.6849 -36.6849
   -36.6560 -36.6560 -36.6144 -36.6144 -36.5920 -36.5920 -36.5827 -36.5827
   -36.5409 -36.5409 -36.5044 -36.5044 -17.0978 -17.0978 -17.0898 -17.0898
   -17.0332 -17.0332 -16.9525 -16.9525 -16.8962 -16.8962 -16.8841 -16.8841
    10.9521  10.9521  12.0785  12.0785  12.7400  12.7400  12.9789  12.9789
    13.4328  13.4328  13.5076  13.5076  13.9819  13.9819  14.0155  14.0155
    14.1468  14.1468  14.2294  14.2294  14.3918  14.3918  14.4918  14.4918
    14.5686  14.5686  14.7081  14.7081  14.9338  14.9338  15.1799  15.1799
    15.5704  15.5704  15.7169  15.7169  15.8123  15.8123  16.1233  16.1233
    16.3024  16.3024  16.7575  16.7575  16.8281  16.8281  17.0462  17.0462
    17.2248  17.2248  17.3926  17.3926  17.5551  17.5551  17.8767  17.8767
    18.1244  18.1244

          k = 0.3333 0.5774 0.0000 ( 15498 PWs)   bands (ev):

   -70.8865 -70.8606 -70.8606 -70.8506 -70.8502 -70.8244 -70.8244 -70.8141
   -40.7620 -40.7620 -40.7466 -40.7466 -36.8825 -36.8405 -36.8355 -36.8355
   -36.7877 -36.7828 -36.7828 -36.7109 -36.7109 -36.6895 -36.6895 -36.6658
   -36.6580 -36.6580 -36.6377 -36.6086 -36.6012 -36.6012 -36.5733 -36.5733
   -36.5641 -36.5641 -36.5313 -36.4790 -17.1113 -17.0940 -17.0940 -17.0939
   -17.0140 -17.0140 -16.9693 -16.9693 -16.8940 -16.8940 -16.8877 -16.8721
    11.0094  11.7855  11.7855  12.5050  12.5342  12.7869  12.7869  12.8917
    12.8917  13.2272  13.9184  13.9184  13.9960  13.9960  14.0952  14.1173
    14.1173  14.1202  14.1567  14.1567  14.2636  14.3425  14.4049  14.4049
    14.6625  14.6625  14.6636  14.7328  14.7328  15.0339  15.0339  15.0706
    15.1252  15.1988  15.8169  15.8341  15.8341  15.8935  15.8935  16.1586
    16.6787  16.6787  16.6947  16.6947  16.9247  16.9247  17.0633  17.0633
    17.1205  17.2544  17.4309  17.5125  17.5296  17.5296  17.8897  17.8897
    17.9318  18.0829

          k = 0.3333 0.5774 0.1030 ( 15495 PWs)   bands (ev):

   -70.8853 -70.8606 -70.8606 -70.8598 -70.8410 -70.8244 -70.8244 -70.8154
   -40.7621 -40.7621 -40.7466 -40.7466 -36.8809 -36.8465 -36.8361 -36.8361
   -36.7794 -36.7794 -36.7784 -36.7133 -36.7133 -36.6986 -36.6986 -36.6798
   -36.6471 -36.6471 -36.6294 -36.6091 -36.6013 -36.6013 -36.5751 -36.5751
   -36.5644 -36.5644 -36.5271 -36.4819 -17.1102 -17.0952 -17.0928 -17.0928
   -17.0177 -17.0177 -16.9659 -16.9659 -16.8948 -16.8948 -16.8866 -16.8731
    11.0600  11.8253  11.8253  12.1242  12.6756  12.6756  12.9181  12.9571
    12.9571  13.2612  13.8849  13.8849  13.9708  14.0431  14.0431  14.0716
    14.1020  14.1020  14.1635  14.1635  14.2890  14.3189  14.3415  14.3415
    14.6084  14.6084  14.6979  14.8670  14.8670  15.0170  15.0443  15.0443
    15.2141  15.2820  15.7543  15.7543  15.7858  15.9742  15.9742  16.1010
    16.5233  16.5233  16.7562  16.7562  16.9182  16.9182  17.1081  17.1167
    17.1167  17.2850  17.3392  17.5150  17.5150  17.5248  17.8859  17.8859
    18.0730  18.0786

          k = 0.3333 0.5774 0.2061 ( 15513 PWs)   bands (ev):

   -70.8817 -70.8685 -70.8606 -70.8606 -70.8323 -70.8244 -70.8244 -70.8190
   -40.7622 -40.7622 -40.7465 -40.7465 -36.8761 -36.8578 -36.8371 -36.8371
   -36.7707 -36.7707 -36.7575 -36.7248 -36.7248 -36.7050 -36.7050 -36.7049
   -36.6311 -36.6311 -36.6197 -36.6106 -36.6015 -36.6015 -36.5801 -36.5801
   -36.5649 -36.5649 -36.5162 -36.4903 -17.1072 -17.0985 -17.0903 -17.0903
   -17.0244 -17.0244 -16.9600 -16.9600 -16.8967 -16.8967 -16.8836 -16.8758
    11.2089  11.7587  11.9269  11.9269  12.5052  12.5052  13.0126  13.0126
    13.2877  13.3589  13.7654  13.8553  13.8553  13.9183  14.0522  14.0522
    14.0556  14.0556  14.2258  14.2258  14.2831  14.2832  14.3080  14.3080
    14.5594  14.5594  14.7781  14.8898  14.8898  14.9475  15.2052  15.2052
    15.3642  15.4714  15.6410  15.6410  15.7015  15.9472  16.0587  16.0587
    16.3501  16.3501  16.7680  16.7680  16.9192  16.9192  17.0978  17.1987
    17.1987  17.2051  17.3662  17.4672  17.4672  17.5172  17.8985  17.8985
    18.0367  18.0367

          k = 0.3333 0.5774-0.3091 ( 15564 PWs)   bands (ev):

   -70.8760 -70.8760 -70.8606 -70.8606 -70.8248 -70.8248 -70.8244 -70.8244
   -40.7622 -40.7622 -40.7464 -40.7464 -36.8683 -36.8683 -36.8376 -36.8376
   -36.7643 -36.7643 -36.7338 -36.7338 -36.7319 -36.7319 -36.7059 -36.7059
   -36.6233 -36.6233 -36.6138 -36.6138 -36.6019 -36.6019 -36.5836 -36.5836
   -36.5650 -36.5650 -36.5026 -36.5026 -17.1029 -17.1029 -17.0888 -17.0888
   -17.0276 -17.0276 -16.9573 -16.9573 -16.8977 -16.8977 -16.8796 -16.8796
    11.4468  11.4468  12.0012  12.0012  12.4059  12.4059  13.0305  13.0305
    13.4823  13.4823  13.6979  13.6979  13.8442  13.8442  14.0327  14.0327
    14.0391  14.0391  14.2714  14.2714  14.2722  14.2722  14.3165  14.3165
    14.5303  14.5303  14.8655  14.8655  14.8668  14.8668  15.3517  15.3517
    15.5187  15.5187  15.5413  15.5413  15.7439  15.7439  16.0920  16.0920
    16.2777  16.2777  16.7685  16.7685  16.9217  16.9217  17.1240  17.1240
    17.2434  17.2434  17.4283  17.4283  17.4562  17.4562  17.9105  17.9105
    18.0086  18.0086

     the Fermi energy is    16.2960 ev

!    total energy              =   -3111.68338662 Ry
     estimated scf accuracy    <          9.3E-10 Ry
     smearing contrib. (-TS)   =       0.00007140 Ry
     internal energy E=F+TS    =   -3111.68345802 Ry

     The total energy is F=E-TS. E is the sum of the following terms:
     one-electron contribution =   -1209.09643270 Ry
     hartree contribution      =     699.13257642 Ry
     xc contribution           =    -349.85250930 Ry
     ewald contribution        =   -1642.60130587 Ry
     one-center paw contrib.   =    -609.26578657 Ry

     convergence has been achieved in  28 iterations

     negative rho (up, down):  1.313E-03 0.000E+00

     Forces acting on atoms (cartesian axes, Ry/au):

     atom    1 type  1   force =    -0.02461870    0.01421362   -0.00000000
     atom    2 type  1   force =     0.02461870   -0.01421362   -0.00000000
     atom    3 type  1   force =     0.00000000    0.02842723    0.00000000
     atom    4 type  1   force =     0.02461870    0.01421362   -0.00000000
     atom    5 type  1   force =     0.00000000   -0.02842723    0.00000000
     atom    6 type  1   force =    -0.02461870   -0.01421362   -0.00000000
     atom    7 type  1   force =     0.00000000    0.00000000    0.00000000
     atom    8 type  1   force =     0.00000000    0.00000000   -0.00000000
     atom    9 type  2   force =     0.00000000    0.00000000   -0.01044574
     atom   10 type  2   force =     0.00000000   -0.00000000   -0.01044574
     atom   11 type  2   force =     0.00000000    0.00000000    0.01044574
     atom   12 type  2   force =     0.00000000    0.00000000    0.01044574

     Total force =     0.072699     Total SCF correction =     0.000009


     Computing stress (Cartesian axis) and pressure


     negative rho (up, down):  1.313E-03 0.000E+00
          total   stress  (Ry/bohr**3)                   (kbar)     P=      256.60
   0.00173182  -0.00000000   0.00000000          254.76       -0.00        0.00
   0.00000000   0.00173182   0.00000000            0.00      254.76        0.00
   0.00000000   0.00000000   0.00176934            0.00        0.00      260.28


     Writing all to output data dir ./FeAl.save/ :
     XML data file, charge density, pseudopotentials, collected wavefunctions

     init_run     :      2.68s CPU      2.87s WALL (       1 calls)
     electrons    :    170.68s CPU    173.08s WALL (       1 calls)
     forces       :      0.91s CPU      0.92s WALL (       1 calls)
     stress       :      3.25s CPU      3.28s WALL (       1 calls)

     Called by init_run:
     wfcinit      :      2.19s CPU      2.32s WALL (       1 calls)
     potinit      :      0.17s CPU      0.22s WALL (       1 calls)
     hinit0       :      0.28s CPU      0.29s WALL (       1 calls)

     Called by electrons:
     c_bands      :    152.04s CPU    153.87s WALL (      28 calls)
     sum_band     :     13.41s CPU     13.65s WALL (      28 calls)
     v_of_rho     :      0.07s CPU      0.07s WALL (      29 calls)
     newd         :      0.43s CPU      0.48s WALL (      29 calls)
     PAW_pot      :      4.86s CPU      5.13s WALL (      29 calls)
     mix_rho      :      0.03s CPU      0.03s WALL (      28 calls)

     Called by c_bands:
     init_us_2    :      2.11s CPU      2.13s WALL (    1652 calls)
     cegterg      :    145.30s CPU    147.04s WALL (     784 calls)

     Called by *egterg:
     cdiaghg      :     38.84s CPU     39.17s WALL (    3211 calls)
     h_psi        :     56.13s CPU     57.21s WALL (    3239 calls)
     s_psi        :      9.32s CPU      9.40s WALL (    3239 calls)
     g_psi        :      0.44s CPU      0.44s WALL (    2427 calls)

     Called by h_psi:
     h_psi:calbec :     12.86s CPU     12.98s WALL (    3239 calls)
     vloc_psi     :     33.56s CPU     34.43s WALL (    3239 calls)
     add_vuspsi   :      9.04s CPU      9.13s WALL (    3239 calls)

     General routines
     calbec       :     20.27s CPU     20.47s WALL (    4499 calls)
     fft          :      0.29s CPU      0.30s WALL (     344 calls)
     ffts         :      0.00s CPU      0.00s WALL (      28 calls)
     fftw         :     36.39s CPU     37.32s WALL (  518798 calls)

     Parallel routines

     PWSCF        :    178.20s CPU    189.39s WALL


   This run was terminated on:  16: 8: 7  27Oct2025            

=------------------------------------------------------------------------------=
   JOB DONE.
=------------------------------------------------------------------------------=
Note: The following floating-point exceptions are signalling: IEEE_UNDERFLOW_FLAG IEEE_DENORMAL
Note: The following floating-point exceptions are signalling: IEEE_UNDERFLOW_FLAG IEEE_DENORMAL
Note: The following floating-point exceptions are signalling: IEEE_UNDERFLOW_FLAG IEEE_DENORMAL
Note: The following floating-point exceptions are signalling: IEEE_UNDERFLOW_FLAG IEEE_DENORMAL
Note: The following floating-point exceptions are signalling: IEEE_UNDERFLOW_FLAG IEEE_DENORMAL
Note: The following floating-point exceptions are signalling: IEEE_UNDERFLOW_FLAG IEEE_DENORMAL
Note: The following floating-point exceptions are signalling: IEEE_UNDERFLOW_FLAG IEEE_DENORMAL
Note: The following floating-point exceptions are signalling: IEEE_UNDERFLOW_FLAG IEEE_DENORMAL
Note: The following floating-point exceptions are signalling: IEEE_UNDERFLOW_FLAG IEEE_DENORMAL
Note: The following floating-point exceptions are signalling: IEEE_UNDERFLOW_FLAG IEEE_DENORMAL
Note: The following floating-point exceptions are signalling: IEEE_UNDERFLOW_FLAG IEEE_DENORMAL
Note: The following floating-point exceptions are signalling: IEEE_UNDERFLOW_FLAG IEEE_DENORMAL
Note: The following floating-point exceptions are signalling: IEEE_UNDERFLOW_FLAG IEEE_DENORMAL
Note: The following floating-point exceptions are signalling: IEEE_UNDERFLOW_FLAG IEEE_DENORMAL
Note: The following floating-point exceptions are signalling: IEEE_UNDERFLOW_FLAG IEEE_DENORMAL
Note: The following floating-point exceptions are signalling: IEEE_UNDERFLOW_FLAG IEEE_DENORMAL
