
     Program PWSCF v.7.4 starts on 27Oct2025 at 16:23:25 

     This program is part of the open-source Quantum ESPRESSO suite
     for quantum simulation of materials; please cite
         "P. Giannozzi et al., J. Phys.:Condens. Matter 21 395502 (2009);
         "P. Giannozzi et al., J. Phys.:Condens. Matter 29 465901 (2017);
         "P. Giannozzi et al., J. Chem. Phys. 152 154105 (2020);
          URL http://www.quantum-espresso.org", 
     in publications or presentations arising from this work. More details at
     http://www.quantum-espresso.org/quote

     Parallel version (MPI & OpenMP), running on      16 processor cores
     Number of MPI processes:                16
     Threads/MPI process:                     1

     MPI processes distributed on     1 nodes
     226943 MiB available memory on the printing compute node when the environment starts

     Reading input from TiFe2_ecutrho_convergence/TiFe2_factor7.in

     Current dimensions of program PWSCF are:
     Max number of different atomic species (ntypx) = 10
     Max number of k-points (npk) =  40000
     Max angular momentum in pseudopotentials (lmaxx) =  4
     file Fe.pbe-spn-kjpaw_psl.0.2.1.UPF: wavefunction(s)  3D renormalized

     IMPORTANT: XC functional enforced from input :
     Exchange-correlation= PBE
                           (   1   4   3   4   0   0   0)
     Any further DFT definition will be discarded
     Please, verify this is what you really want

     Message from routine setup:
     using ibrav=0 with symmetry is DISCOURAGED, use correct ibrav instead

     R & G space division:  proc/nbgrp/npool/nimage =      16
     Subspace diagonalization in iterative solution of the eigenvalue problem:
     a serial algorithm will be used


     Parallelization info
     --------------------
     sticks:   dense  smooth     PW     G-vecs:    dense   smooth      PW
     Min         227     129     36                17953     7763    1138
     Max         228     131     37                17958     7768    1143
     Sum        3643    2077    583               287309   124229   18233

     Using Slab Decomposition



     bravais-lattice index     =            0
     lattice parameter (alat)  =       9.1568  a.u.
     unit-cell volume          =    1075.5644 (a.u.)^3
     number of atoms/cell      =           12
     number of atomic types    =            2
     number of electrons       =       176.00
     number of Kohn-Sham states=          106
     kinetic-energy cutoff     =      90.0000  Ry
     charge density cutoff     =     630.0000  Ry
     scf convergence threshold =      1.0E-08
     mixing beta               =       0.7000
     number of iterations used =            8  plain     mixing
     Exchange-correlation= PBE
                           (   1   4   3   4   0   0   0)

     celldm(1)=   9.156781  celldm(2)=   0.000000  celldm(3)=   0.000000
     celldm(4)=   0.000000  celldm(5)=   0.000000  celldm(6)=   0.000000

     crystal axes: (cart. coord. in units of alat)
               a(1) = (   1.000000   0.000000   0.000000 )  
               a(2) = (  -0.500000   0.866025   0.000000 )  
               a(3) = (   0.000000   0.000000   1.617623 )  

     reciprocal axes: (cart. coord. in units 2 pi/alat)
               b(1) = (  1.000000  0.577350 -0.000000 )  
               b(2) = (  0.000000  1.154701  0.000000 )  
               b(3) = (  0.000000 -0.000000  0.618191 )  


     PseudoPot. # 1 for Fe read from file:
     ./Fe.pbe-spn-kjpaw_psl.0.2.1.UPF
     MD5 check sum: e86618425769142926afa95317d90200
     Pseudo is Projector augmented-wave + core cor, Zval = 16.0
     Generated using "atomic" code by A. Dal Corso  v.5.0.99 svn rev. 10869
     Shape of augmentation charge: PSQ
     Using radial grid of 1191 points,  6 beta functions with: 
                l(1) =   0
                l(2) =   0
                l(3) =   1
                l(4) =   1
                l(5) =   2
                l(6) =   2
     Q(r) pseudized with 0 coefficients 


     PseudoPot. # 2 for Ti read from file:
     ./Ti_pbe_v1.4.uspp.F.UPF
     MD5 check sum: 88a00a6731bd790ddea75d31a80cb452
     Pseudo is Ultrasoft + core correction, Zval = 12.0
     Generated by new atomic code, or converted to UPF format
     Using radial grid of  851 points,  6 beta functions with: 
                l(1) =   0
                l(2) =   0
                l(3) =   1
                l(4) =   1
                l(5) =   2
                l(6) =   2
     Q(r) pseudized with  6 coefficients,  rinner =    1.000   1.000   1.000
                                                       1.000   1.000

     atomic species   valence    mass     pseudopotential
     Fe               16.00    55.84500     Fe( 1.00)
     Ti               12.00    47.86700     Ti( 1.00)

     24 Sym. Ops., with inversion, found (12 have fractional translation)



   Cartesian axes

     site n.     atom                  positions (alat units)
         1        Fe     tau(   1) = (   0.7465670   0.1463196   0.4044057  )
         2        Fe     tau(   2) = (  -0.2465670   0.7197058   1.2132171  )
         3        Fe     tau(   3) = (  -0.0000000   0.2926392   1.2132171  )
         4        Fe     tau(   4) = (   0.2534330   0.1463196   0.4044057  )
         5        Fe     tau(   5) = (   0.5000000   0.5733862   0.4044057  )
         6        Fe     tau(   6) = (   0.2465670   0.7197058   1.2132171  )
         7        Fe     tau(   7) = (   0.0000000   0.0000000   0.0000000  )
         8        Fe     tau(   8) = (   0.0000000   0.0000000   0.8088114  )
         9        Ti     tau(   9) = (   0.5000000   0.2886751   1.5200090  )
        10        Ti     tau(  10) = (  -0.0000000   0.5773503   0.7111976  )
        11        Ti     tau(  11) = (  -0.0000000   0.5773503   0.0976138  )
        12        Ti     tau(  12) = (   0.5000000   0.2886751   0.9064252  )

     number of k points=    28  Marzari-Vanderbilt smearing, width (Ry)=  0.0050
                       cart. coord. in units 2pi/alat
        k(    1) = (   0.0000000   0.0000000   0.0000000), wk =   0.0092593
        k(    2) = (   0.0000000   0.0000000   0.1030318), wk =   0.0185185
        k(    3) = (   0.0000000   0.0000000   0.2060637), wk =   0.0185185
        k(    4) = (   0.0000000   0.0000000  -0.3090955), wk =   0.0092593
        k(    5) = (   0.0000000   0.1924501   0.0000000), wk =   0.0555556
        k(    6) = (   0.0000000   0.1924501   0.1030318), wk =   0.1111111
        k(    7) = (   0.0000000   0.1924501   0.2060637), wk =   0.1111111
        k(    8) = (   0.0000000   0.1924501  -0.3090955), wk =   0.0555556
        k(    9) = (   0.0000000   0.3849002   0.0000000), wk =   0.0555556
        k(   10) = (   0.0000000   0.3849002   0.1030318), wk =   0.1111111
        k(   11) = (   0.0000000   0.3849002   0.2060637), wk =   0.1111111
        k(   12) = (   0.0000000   0.3849002  -0.3090955), wk =   0.0555556
        k(   13) = (   0.0000000  -0.5773503   0.0000000), wk =   0.0277778
        k(   14) = (   0.0000000  -0.5773503   0.1030318), wk =   0.0555556
        k(   15) = (   0.0000000  -0.5773503   0.2060637), wk =   0.0555556
        k(   16) = (   0.0000000  -0.5773503  -0.3090955), wk =   0.0277778
        k(   17) = (   0.1666667   0.2886751   0.0000000), wk =   0.0555556
        k(   18) = (   0.1666667   0.2886751   0.1030318), wk =   0.1111111
        k(   19) = (   0.1666667   0.2886751   0.2060637), wk =   0.1111111
        k(   20) = (   0.1666667   0.2886751  -0.3090955), wk =   0.0555556
        k(   21) = (   0.1666667   0.4811252   0.0000000), wk =   0.1111111
        k(   22) = (   0.1666667   0.4811252   0.1030318), wk =   0.2222222
        k(   23) = (   0.1666667   0.4811252   0.2060637), wk =   0.2222222
        k(   24) = (   0.1666667   0.4811252  -0.3090955), wk =   0.1111111
        k(   25) = (   0.3333333   0.5773503   0.0000000), wk =   0.0185185
        k(   26) = (   0.3333333   0.5773503   0.1030318), wk =   0.0370370
        k(   27) = (   0.3333333   0.5773503   0.2060637), wk =   0.0370370
        k(   28) = (   0.3333333   0.5773503  -0.3090955), wk =   0.0185185

     Dense  grid:   287309 G-vectors     FFT dimensions: (  75,  75, 120)

     Smooth grid:   124229 G-vectors     FFT dimensions: (  60,  60,  90)

     Estimated max dynamical RAM per process >     120.84 MB

     Estimated total dynamical RAM >       1.89 GB

     Check: negative core charge=   -0.000011

     Initial potential from superposition of free atoms

     starting charge     171.9963, renormalised to     176.0000

     negative rho (up, down):  5.229E-03 0.000E+00
     Starting wfcs are  144 randomized atomic wfcs
     Checking if some PAW data can be deallocated... 

     total cpu time spent up to now is        4.7 secs

     per-process dynamical memory:   177.2 Mb

     Self-consistent Calculation

     iteration #  1     ecut=    90.00 Ry     beta= 0.70
     Davidson diagonalization with overlap
     ethr =  1.00E-02,  avg # of iterations =  2.0

     negative rho (up, down):  3.001E-04 0.000E+00

     total cpu time spent up to now is       12.4 secs

     total energy              =   -3017.03359422 Ry
     estimated scf accuracy    <     116.54219771 Ry

     iteration #  2     ecut=    90.00 Ry     beta= 0.70
     Davidson diagonalization with overlap
     ethr =  1.00E-02,  avg # of iterations =  6.7

     total cpu time spent up to now is       28.2 secs

     total energy              =   -3075.97132550 Ry
     estimated scf accuracy    <     699.71200918 Ry

     iteration #  3     ecut=    90.00 Ry     beta= 0.70
     Davidson diagonalization with overlap
     ethr =  1.00E-02,  avg # of iterations =  5.1

     total cpu time spent up to now is       40.4 secs

     total energy              =   -3120.92230238 Ry
     estimated scf accuracy    <      91.51051115 Ry

     iteration #  4     ecut=    90.00 Ry     beta= 0.70
     Davidson diagonalization with overlap
     ethr =  1.00E-02,  avg # of iterations =  1.2

     negative rho (up, down):  1.271E-05 0.000E+00

     total cpu time spent up to now is       46.6 secs

     total energy              =   -3116.48551372 Ry
     estimated scf accuracy    <      54.40599119 Ry

     iteration #  5     ecut=    90.00 Ry     beta= 0.70
     Davidson diagonalization with overlap
     ethr =  1.00E-02,  avg # of iterations =  1.7

     negative rho (up, down):  1.546E-04 0.000E+00

     total cpu time spent up to now is       53.1 secs

     total energy              =   -3115.17875882 Ry
     estimated scf accuracy    <      41.79137881 Ry

     iteration #  6     ecut=    90.00 Ry     beta= 0.70
     Davidson diagonalization with overlap
     ethr =  1.00E-02,  avg # of iterations =  1.0

     negative rho (up, down):  4.103E-04 0.000E+00

     total cpu time spent up to now is       59.2 secs

     total energy              =   -3113.66899343 Ry
     estimated scf accuracy    <      26.00406935 Ry

     iteration #  7     ecut=    90.00 Ry     beta= 0.70
     Davidson diagonalization with overlap
     ethr =  1.00E-02,  avg # of iterations =  1.0

     negative rho (up, down):  1.070E-03 0.000E+00

     total cpu time spent up to now is       65.3 secs

     total energy              =   -3111.34130207 Ry
     estimated scf accuracy    <      18.34338864 Ry

     iteration #  8     ecut=    90.00 Ry     beta= 0.70
     Davidson diagonalization with overlap
     ethr =  1.00E-02,  avg # of iterations =  1.0

     negative rho (up, down):  1.227E-03 0.000E+00

     total cpu time spent up to now is       71.4 secs

     total energy              =   -3111.48230906 Ry
     estimated scf accuracy    <       6.17663634 Ry

     iteration #  9     ecut=    90.00 Ry     beta= 0.70
     Davidson diagonalization with overlap
     ethr =  3.51E-03,  avg # of iterations =  1.8

     negative rho (up, down):  2.165E-03 0.000E+00

     total cpu time spent up to now is       78.0 secs

     total energy              =   -3111.23368376 Ry
     estimated scf accuracy    <       4.39326467 Ry

     iteration # 10     ecut=    90.00 Ry     beta= 0.70
     Davidson diagonalization with overlap
     ethr =  2.50E-03,  avg # of iterations =  2.2

     negative rho (up, down):  4.645E-03 0.000E+00

     total cpu time spent up to now is       84.9 secs

     total energy              =   -3110.91805926 Ry
     estimated scf accuracy    <       1.49129156 Ry

     iteration # 11     ecut=    90.00 Ry     beta= 0.70
     Davidson diagonalization with overlap
     ethr =  8.47E-04,  avg # of iterations =  5.1

     negative rho (up, down):  3.662E-03 0.000E+00

     total cpu time spent up to now is       95.7 secs

     total energy              =   -3111.28592183 Ry
     estimated scf accuracy    <       7.11653875 Ry

     iteration # 12     ecut=    90.00 Ry     beta= 0.70
     Davidson diagonalization with overlap
     ethr =  8.47E-04,  avg # of iterations =  1.2

     negative rho (up, down):  1.907E-03 0.000E+00

     total cpu time spent up to now is      101.9 secs

     total energy              =   -3111.10037147 Ry
     estimated scf accuracy    <       1.48688196 Ry

     iteration # 13     ecut=    90.00 Ry     beta= 0.70
     Davidson diagonalization with overlap
     ethr =  8.45E-04,  avg # of iterations =  3.3

     negative rho (up, down):  2.610E-03 0.000E+00

     total cpu time spent up to now is      109.9 secs

     total energy              =   -3111.39825571 Ry
     estimated scf accuracy    <       1.35305790 Ry

     iteration # 14     ecut=    90.00 Ry     beta= 0.70
     Davidson diagonalization with overlap
     ethr =  7.69E-04,  avg # of iterations =  1.0

     negative rho (up, down):  3.051E-03 0.000E+00

     total cpu time spent up to now is      116.0 secs

     total energy              =   -3111.33315103 Ry
     estimated scf accuracy    <       0.87077968 Ry

     iteration # 15     ecut=    90.00 Ry     beta= 0.70
     Davidson diagonalization with overlap
     ethr =  4.95E-04,  avg # of iterations =  1.1

     negative rho (up, down):  3.126E-03 0.000E+00

     total cpu time spent up to now is      122.1 secs

     total energy              =   -3111.34827515 Ry
     estimated scf accuracy    <       0.13675765 Ry

     iteration # 16     ecut=    90.00 Ry     beta= 0.70
     Davidson diagonalization with overlap
     ethr =  7.77E-05,  avg # of iterations =  1.7

     negative rho (up, down):  3.158E-03 0.000E+00

     total cpu time spent up to now is      128.6 secs

     total energy              =   -3111.34916790 Ry
     estimated scf accuracy    <       0.07021200 Ry

     iteration # 17     ecut=    90.00 Ry     beta= 0.70
     Davidson diagonalization with overlap
     ethr =  3.99E-05,  avg # of iterations =  2.2

     negative rho (up, down):  3.267E-03 0.000E+00

     total cpu time spent up to now is      135.2 secs

     total energy              =   -3111.34493823 Ry
     estimated scf accuracy    <       0.07032663 Ry

     iteration # 18     ecut=    90.00 Ry     beta= 0.70
     Davidson diagonalization with overlap
     ethr =  3.99E-05,  avg # of iterations =  1.8

     negative rho (up, down):  3.369E-03 0.000E+00

     total cpu time spent up to now is      141.6 secs

     total energy              =   -3111.34381127 Ry
     estimated scf accuracy    <       0.02089226 Ry

     iteration # 19     ecut=    90.00 Ry     beta= 0.70
     Davidson diagonalization with overlap
     ethr =  1.19E-05,  avg # of iterations =  6.0

     negative rho (up, down):  3.371E-03 0.000E+00

     total cpu time spent up to now is      150.2 secs

     total energy              =   -3111.34545789 Ry
     estimated scf accuracy    <       0.00001451 Ry

     iteration # 20     ecut=    90.00 Ry     beta= 0.70
     Davidson diagonalization with overlap
     c_bands:  1 eigenvalues not converged
     ethr =  8.24E-09,  avg # of iterations = 12.4

     negative rho (up, down):  3.376E-03 0.000E+00

     total cpu time spent up to now is      177.5 secs

     total energy              =   -3111.34574762 Ry
     estimated scf accuracy    <       0.00006850 Ry

     iteration # 21     ecut=    90.00 Ry     beta= 0.70
     Davidson diagonalization with overlap
     ethr =  8.24E-09,  avg # of iterations =  1.1

     negative rho (up, down):  3.378E-03 0.000E+00

     total cpu time spent up to now is      183.6 secs

     total energy              =   -3111.34574713 Ry
     estimated scf accuracy    <       0.00003747 Ry

     iteration # 22     ecut=    90.00 Ry     beta= 0.70
     Davidson diagonalization with overlap
     ethr =  8.24E-09,  avg # of iterations =  1.0

     negative rho (up, down):  3.382E-03 0.000E+00

     total cpu time spent up to now is      189.6 secs

     total energy              =   -3111.34574901 Ry
     estimated scf accuracy    <       0.00001048 Ry

     iteration # 23     ecut=    90.00 Ry     beta= 0.70
     Davidson diagonalization with overlap
     ethr =  5.96E-09,  avg # of iterations =  1.0

     negative rho (up, down):  3.379E-03 0.000E+00

     total cpu time spent up to now is      195.7 secs

     total energy              =   -3111.34574606 Ry
     estimated scf accuracy    <       0.00004431 Ry

     iteration # 24     ecut=    90.00 Ry     beta= 0.70
     Davidson diagonalization with overlap
     ethr =  5.96E-09,  avg # of iterations =  1.4

     negative rho (up, down):  3.378E-03 0.000E+00

     total cpu time spent up to now is      202.1 secs

     total energy              =   -3111.34574655 Ry
     estimated scf accuracy    <       0.00000473 Ry

     iteration # 25     ecut=    90.00 Ry     beta= 0.70
     Davidson diagonalization with overlap
     ethr =  2.69E-09,  avg # of iterations =  3.0

     negative rho (up, down):  3.378E-03 0.000E+00

     total cpu time spent up to now is      209.6 secs

     total energy              =   -3111.34574709 Ry
     estimated scf accuracy    <       0.00000015 Ry

     iteration # 26     ecut=    90.00 Ry     beta= 0.70
     Davidson diagonalization with overlap
     ethr =  8.54E-11,  avg # of iterations =  5.1

     negative rho (up, down):  3.378E-03 0.000E+00

     total cpu time spent up to now is      221.0 secs

     total energy              =   -3111.34574714 Ry
     estimated scf accuracy    <       0.00000057 Ry

     iteration # 27     ecut=    90.00 Ry     beta= 0.70
     Davidson diagonalization with overlap
     ethr =  8.54E-11,  avg # of iterations =  1.4

     negative rho (up, down):  3.378E-03 0.000E+00

     total cpu time spent up to now is      227.4 secs

     total energy              =   -3111.34574713 Ry
     estimated scf accuracy    <       0.00000013 Ry

     iteration # 28     ecut=    90.00 Ry     beta= 0.70
     Davidson diagonalization with overlap
     ethr =  7.53E-11,  avg # of iterations =  2.3

     negative rho (up, down):  3.378E-03 0.000E+00

     total cpu time spent up to now is      234.4 secs

     End of self-consistent calculation

          k = 0.0000 0.0000 0.0000 ( 15507 PWs)   bands (ev):

   -70.7850 -70.7624 -70.7266 -70.7038 -70.6994 -70.6994 -70.6994 -70.6994
   -40.8835 -40.8693 -40.8340 -40.8186 -37.1896 -37.1198 -37.0107 -36.8919
   -36.8919 -36.8718 -36.8718 -36.8579 -36.8579 -36.7985 -36.7871 -36.7463
   -36.7463 -36.7436 -36.7436 -36.6452 -36.6430 -36.6430 -36.6419 -36.6419
   -36.6331 -36.6331 -36.6203 -36.6202 -17.1755 -17.1755 -17.1615 -17.1615
   -17.1601 -17.1585 -17.0196 -17.0166 -17.0022 -17.0022 -16.9876 -16.9876
     8.6175  10.6476  11.4211  12.0187  12.5086  12.6092  12.7683  12.7683
    12.9886  12.9886  13.1990  13.2936  13.3852  13.3852  13.8270  13.8270
    13.9654  13.9654  14.2074  14.2940  14.2940  14.3189  14.3189  14.7760
    14.7760  14.9083  15.3891  15.3891  15.5082  15.5082  15.8278  15.9117
    15.9117  15.9145  15.9145  16.0608  16.0638  16.0638  16.0712  16.1325
    16.1596  16.1596  16.2311  16.2766  16.2766  16.7290  16.7290  16.7450
    16.9880  16.9880  17.2871  17.2871  17.4909  17.4909  17.5138  17.5141
    17.7861  17.7861

          k = 0.0000 0.0000 0.1030 ( 15471 PWs)   bands (ev):

   -70.7839 -70.7647 -70.7243 -70.7049 -70.6994 -70.6994 -70.6994 -70.6994
   -40.8827 -40.8706 -40.8326 -40.8195 -37.1866 -37.1284 -36.9974 -36.8914
   -36.8914 -36.8764 -36.8764 -36.8501 -36.8501 -36.8371 -36.7699 -36.7699
   -36.7515 -36.7203 -36.7203 -36.6501 -36.6501 -36.6498 -36.6379 -36.6379
   -36.6332 -36.6332 -36.6203 -36.6202 -17.1746 -17.1746 -17.1625 -17.1625
   -17.1598 -17.1583 -17.0196 -17.0170 -17.0011 -17.0011 -16.9885 -16.9885
     8.6942  10.2976  11.7124  12.0193  12.4078  12.7815  12.7815  12.7990
    12.9708  12.9708  13.0471  13.3951  13.4118  13.4118  13.8039  13.8039
    13.9481  13.9481  14.1830  14.1830  14.2743  14.4630  14.4630  14.8318
    14.8318  14.9430  15.3154  15.3154  15.4198  15.4199  15.7042  15.8480
    15.9282  15.9282  16.0200  16.0200  16.0555  16.0555  16.0752  16.1283
    16.1642  16.1642  16.2164  16.2164  16.3674  16.7973  16.7973  16.9620
    16.9785  16.9785  17.2792  17.2792  17.4933  17.4933  17.5138  17.5141
    17.7696  17.7696

          k = 0.0000 0.0000 0.2061 ( 15471 PWs)   bands (ev):

   -70.7807 -70.7700 -70.7189 -70.7081 -70.6994 -70.6994 -70.6994 -70.6994
   -40.8806 -40.8738 -40.8292 -40.8217 -37.1778 -37.1462 -36.9658 -36.8898
   -36.8898 -36.8824 -36.8824 -36.8819 -36.8350 -36.8350 -36.7940 -36.7940
   -36.7156 -36.6975 -36.6975 -36.6635 -36.6617 -36.6617 -36.6355 -36.6355
   -36.6335 -36.6335 -36.6203 -36.6202 -17.1722 -17.1722 -17.1652 -17.1652
   -17.1590 -17.1582 -17.0196 -17.0180 -16.9983 -16.9983 -16.9910 -16.9910
     8.9208   9.7619  11.9820  12.0210  12.4581  12.8184  12.8184  12.8584
    12.9262  12.9262  13.0611  13.4122  13.4848  13.4848  13.7119  13.7119
    13.9585  13.9585  14.0861  14.0861  14.4996  14.6538  14.6538  14.9407
    14.9407  15.0282  15.1522  15.1522  15.2776  15.2776  15.4658  15.4911
    15.9604  15.9604  16.0257  16.0257  16.0811  16.0811  16.0864  16.1170
    16.1196  16.1196  16.3267  16.3267  16.6101  16.8001  16.8001  17.0139
    17.0139  17.2412  17.2412  17.3933  17.5139  17.5439  17.5439  17.5624
    17.7187  17.7187

          k = 0.0000 0.0000-0.3091 ( 15500 PWs)   bands (ev):

   -70.7758 -70.7758 -70.7131 -70.7131 -70.6994 -70.6994 -70.6994 -70.6994
   -40.8775 -40.8775 -40.8252 -40.8252 -37.1639 -37.1639 -36.9257 -36.9257
   -36.8869 -36.8869 -36.8869 -36.8869 -36.8160 -36.8160 -36.8160 -36.8160
   -36.6858 -36.6858 -36.6776 -36.6776 -36.6776 -36.6776 -36.6342 -36.6342
   -36.6342 -36.6342 -36.6203 -36.6203 -17.1687 -17.1687 -17.1687 -17.1687
   -17.1583 -17.1583 -17.0190 -17.0190 -16.9946 -16.9946 -16.9946 -16.9946
     9.2848   9.2848  12.0225  12.0225  12.6648  12.6648  12.8706  12.8706
    12.8706  12.8706  13.2878  13.2878  13.5910  13.5910  13.5910  13.5910
    14.0101  14.0101  14.0101  14.0101  14.8632  14.8632  14.8632  14.8632
    14.8719  14.8719  15.1481  15.1481  15.1481  15.1481  15.3166  15.3166
    16.0010  16.0010  16.0010  16.0010  16.0675  16.0675  16.0675  16.0675
    16.1016  16.1016  16.5876  16.5876  16.5876  16.5876  16.9833  16.9833
    17.1486  17.1486  17.1486  17.1486  17.5139  17.5139  17.6362  17.6362
    17.6362  17.6362

          k = 0.0000 0.1925 0.0000 ( 15506 PWs)   bands (ev):

   -70.7815 -70.7587 -70.7266 -70.7121 -70.7030 -70.6994 -70.6994 -70.6946
   -40.8807 -40.8663 -40.8370 -40.8216 -37.1680 -37.0984 -37.0082 -36.8907
   -36.8781 -36.8772 -36.8619 -36.8580 -36.8565 -36.7919 -36.7872 -36.7535
   -36.7463 -36.7444 -36.7438 -36.6597 -36.6543 -36.6506 -36.6462 -36.6430
   -36.6415 -36.6401 -36.6270 -36.6257 -17.1899 -17.1799 -17.1654 -17.1623
   -17.1572 -17.1375 -17.0358 -17.0124 -17.0075 -16.9980 -16.9834 -16.9799
     8.8834  10.8506  11.5993  12.1302  12.5486  12.6037  12.7139  12.8104
    12.9001  13.1527  13.1563  13.3959  13.4395  13.4677  13.7819  13.8802
    13.9658  14.0689  14.2443  14.2824  14.2949  14.3202  14.3663  14.6300
    14.6983  14.7104  15.0239  15.2173  15.2237  15.2787  15.4964  15.5670
    15.7634  15.8569  15.8795  15.9576  16.0029  16.0684  16.1143  16.1929
    16.2175  16.3003  16.3271  16.3559  16.4907  16.6269  16.8015  16.8950
    16.9053  17.0129  17.2893  17.3005  17.3346  17.5239  17.5426  17.5475
    17.5771  17.9174

          k = 0.0000 0.1925 0.1030 ( 15503 PWs)   bands (ev):

   -70.7804 -70.7611 -70.7246 -70.7125 -70.7027 -70.6994 -70.6994 -70.6954
   -40.8800 -40.8678 -40.8355 -40.8224 -37.1651 -37.1076 -36.9947 -36.8903
   -36.8831 -36.8777 -36.8653 -36.8539 -36.8461 -36.8294 -36.7742 -36.7694
   -36.7511 -36.7249 -36.7210 -36.6612 -36.6555 -36.6544 -36.6476 -36.6429
   -36.6425 -36.6415 -36.6268 -36.6257 -17.1884 -17.1790 -17.1664 -17.1657
   -17.1542 -17.1385 -17.0349 -17.0165 -17.0031 -16.9970 -16.9843 -16.9812
     8.9583  10.5148  11.8754  12.1312  12.4540  12.6568  12.7808  12.8294
    12.9360  13.1220  13.1309  13.3672  13.4705  13.5008  13.7764  13.8654
    13.9368  14.0351  14.1362  14.2176  14.3250  14.4430  14.5014  14.6904
    14.7326  14.7595  15.0250  15.1651  15.1825  15.2535  15.5063  15.5554
    15.6793  15.8069  15.8578  15.9271  16.0068  16.0368  16.1192  16.1692
    16.2033  16.2902  16.3050  16.3989  16.4983  16.6843  16.7876  16.9070
    16.9600  17.0946  17.2831  17.3223  17.3344  17.4692  17.5453  17.5717
    17.6242  17.8931

          k = 0.0000 0.1925 0.2061 ( 15491 PWs)   bands (ev):

   -70.7772 -70.7665 -70.7202 -70.7137 -70.7016 -70.6994 -70.6994 -70.6973
   -40.8780 -40.8711 -40.8320 -40.8246 -37.1567 -37.1257 -36.9643 -36.8987
   -36.8865 -36.8765 -36.8707 -36.8641 -36.8386 -36.8316 -36.7977 -36.7926
   -36.7183 -36.7047 -36.6987 -36.6667 -36.6644 -36.6624 -36.6496 -36.6475
   -36.6419 -36.6416 -36.6264 -36.6259 -17.1842 -17.1765 -17.1717 -17.1692
   -17.1497 -17.1411 -17.0320 -17.0222 -16.9967 -16.9942 -16.9869 -16.9849
     9.1792   9.9970  12.1183  12.1387  12.4823  12.6837  12.8034  12.8832
    13.0258  13.0487  13.1134  13.3673  13.5189  13.5507  13.7010  13.7862
    13.9476  14.0173  14.0586  14.1253  14.4498  14.6543  14.6741  14.7856
    14.8342  14.8398  14.9907  15.0772  15.0954  15.1732  15.3495  15.4350
    15.6712  15.8064  15.8564  15.8935  15.9197  16.0230  16.0549  16.0955
    16.1991  16.2943  16.3276  16.5045  16.5574  16.6865  16.7346  16.8210
    17.0744  17.2450  17.2647  17.3436  17.3928  17.5122  17.5386  17.6164
    17.6225  17.8237

          k = 0.0000 0.1925-0.3091 ( 15474 PWs)   bands (ev):

   -70.7723 -70.7723 -70.7163 -70.7163 -70.6997 -70.6997 -70.6994 -70.6994
   -40.8748 -40.8748 -40.8280 -40.8280 -37.1432 -37.1432 -36.9283 -36.9283
   -36.8808 -36.8808 -36.8743 -36.8743 -36.8196 -36.8196 -36.8136 -36.8136
   -36.6972 -36.6972 -36.6795 -36.6795 -36.6720 -36.6720 -36.6496 -36.6496
   -36.6417 -36.6417 -36.6261 -36.6261 -17.1782 -17.1782 -17.1729 -17.1729
   -17.1451 -17.1451 -17.0276 -17.0276 -16.9904 -16.9904 -16.9904 -16.9904
     9.5337   9.5337  12.1421  12.1421  12.6258  12.6258  12.8922  12.8922
    12.9617  12.9617  13.2864  13.2864  13.5867  13.5867  13.6634  13.6634
    14.0007  14.0007  14.0563  14.0563  14.6720  14.6720  14.8187  14.8187
    14.8841  14.8841  14.9548  14.9548  15.0947  15.0947  15.2745  15.2745
    15.7856  15.7856  15.8455  15.8455  15.9247  15.9247  16.0537  16.0537
    16.2479  16.2479  16.4869  16.4869  16.6492  16.6492  16.6859  16.6859
    17.1767  17.1767  17.3491  17.3491  17.4714  17.4714  17.5378  17.5378
    17.7224  17.7224

          k = 0.0000 0.3849 0.0000 ( 15504 PWs)   bands (ev):

   -70.7728 -70.7495 -70.7266 -70.7243 -70.7123 -70.6994 -70.6994 -70.6912
   -40.8736 -40.8587 -40.8448 -40.8293 -37.1159 -37.0473 -37.0029 -36.9062
   -36.8756 -36.8681 -36.8581 -36.8439 -36.8158 -36.7873 -36.7824 -36.7638
   -36.7478 -36.7463 -36.7446 -36.7154 -36.6875 -36.6867 -36.6734 -36.6530
   -36.6429 -36.6316 -36.6313 -36.6277 -17.1986 -17.1882 -17.1728 -17.1713
   -17.1471 -17.1098 -17.0614 -17.0192 -17.0030 -16.9903 -16.9755 -16.9740
     9.6319  11.3549  12.0186  12.0465  12.4025  12.5943  12.6503  12.9355
    13.0018  13.0731  13.5548  13.5696  13.5904  13.6368  13.7324  13.9209
    14.0020  14.1415  14.2440  14.2777  14.3257  14.3682  14.4104  14.4427
    14.4935  14.5400  14.5451  14.7686  14.7840  14.8842  14.9697  15.0727
    15.0973  15.3989  15.7128  15.9939  16.0845  16.1403  16.1484  16.1931
    16.2031  16.3319  16.4110  16.6264  16.6400  16.7397  16.7445  16.8445
    16.8549  17.0219  17.0262  17.3379  17.3927  17.6184  17.6751  17.6916
    17.7352  18.2598

          k = 0.0000 0.3849 0.1030 ( 15519 PWs)   bands (ev):

   -70.7717 -70.7520 -70.7260 -70.7243 -70.7104 -70.6994 -70.6994 -70.6923
   -40.8729 -40.8606 -40.8429 -40.8299 -37.1135 -37.0590 -36.9884 -36.9091
   -36.8781 -36.8600 -36.8567 -36.8445 -36.8147 -36.8143 -36.7838 -36.7662
   -36.7548 -36.7361 -36.7250 -36.7122 -36.6881 -36.6834 -36.6725 -36.6561
   -36.6462 -36.6350 -36.6305 -36.6278 -17.1968 -17.1872 -17.1739 -17.1728
   -17.1458 -17.1139 -17.0574 -17.0221 -17.0001 -16.9892 -16.9764 -16.9755
     9.7005  11.0869  11.9783  12.3208  12.3561  12.6111  12.6788  12.9388
    12.9647  13.1406  13.4627  13.4883  13.6565  13.7142  13.7394  13.9073
    13.9906  14.0979  14.2067  14.2732  14.2966  14.3022  14.3886  14.4837
    14.5469  14.5941  14.6566  14.7707  14.7956  14.9428  14.9699  15.0508
    15.1198  15.4177  15.7127  15.8932  16.0195  16.0600  16.1015  16.1549
    16.2133  16.3770  16.3906  16.6334  16.6478  16.7103  16.7304  16.8463
    16.8785  17.0674  17.1724  17.2887  17.3708  17.4870  17.6478  17.7182
    17.9659  18.1929

          k = 0.0000 0.3849 0.2061 ( 15519 PWs)   bands (ev):

   -70.7685 -70.7576 -70.7252 -70.7244 -70.7057 -70.6994 -70.6994 -70.6954
   -40.8711 -40.8644 -40.8390 -40.8319 -37.1060 -37.0776 -36.9622 -36.9187
   -36.8759 -36.8531 -36.8473 -36.8461 -36.8415 -36.8092 -36.8052 -36.7848
   -36.7386 -36.7291 -36.7075 -36.6983 -36.6903 -36.6734 -36.6694 -36.6653
   -36.6538 -36.6448 -36.6293 -36.6280 -17.1916 -17.1845 -17.1775 -17.1769
   -17.1411 -17.1231 -17.0483 -17.0290 -16.9937 -16.9864 -16.9800 -16.9790
     9.9024  10.6383  12.0313  12.2459  12.5901  12.6553  12.7444  12.8911
    13.0484  13.1960  13.3225  13.3700  13.7417  13.7514  13.8038  13.8936
    13.9401  14.0399  14.1775  14.1922  14.2402  14.3197  14.4495  14.5261
    14.5797  14.6197  14.7187  14.8444  14.8528  14.9646  14.9959  15.0482
    15.2561  15.4995  15.6955  15.7636  15.8555  15.9313  15.9502  16.0059
    16.2566  16.3511  16.4403  16.6241  16.6817  16.7004  16.7091  16.8473
    16.9465  17.1315  17.1691  17.3073  17.3795  17.5166  17.6416  17.8150
    17.9857  18.0875

          k = 0.0000 0.3849-0.3091 ( 15504 PWs)   bands (ev):

   -70.7635 -70.7635 -70.7247 -70.7247 -70.7002 -70.7002 -70.6994 -70.6994
   -40.8681 -40.8681 -40.8351 -40.8351 -37.0939 -37.0939 -36.9368 -36.9368
   -36.8653 -36.8653 -36.8491 -36.8491 -36.8261 -36.8261 -36.7995 -36.7995
   -36.7309 -36.7309 -36.6959 -36.6959 -36.6801 -36.6801 -36.6628 -36.6628
   -36.6589 -36.6589 -36.6285 -36.6285 -17.1845 -17.1845 -17.1808 -17.1808
   -17.1330 -17.1330 -17.0382 -17.0382 -16.9865 -16.9865 -16.9826 -16.9826
    10.2239  10.2239  12.1269  12.1269  12.6755  12.6755  12.8343  12.8343
    13.1746  13.1746  13.2649  13.2649  13.7741  13.7741  13.8430  13.8430
    13.9788  13.9788  14.1936  14.1936  14.2484  14.2484  14.5082  14.5082
    14.6014  14.6014  14.7870  14.7870  14.9523  14.9523  15.0256  15.0256
    15.5121  15.5121  15.6588  15.6588  15.7957  15.7957  15.8961  15.8961
    16.3152  16.3152  16.5418  16.5418  16.6589  16.6589  16.7971  16.7971
    17.0501  17.0501  17.2128  17.2128  17.5380  17.5380  17.7508  17.7508
    17.9560  17.9560

          k = 0.0000-0.5774 0.0000 ( 15546 PWs)   bands (ev):

   -70.7668 -70.7424 -70.7314 -70.7266 -70.7194 -70.6994 -70.6994 -70.6901
   -40.8678 -40.8526 -40.8510 -40.8354 -37.0819 -37.0113 -37.0001 -36.9322
   -36.8706 -36.8621 -36.8581 -36.8197 -36.7873 -36.7826 -36.7777 -36.7638
   -36.7626 -36.7464 -36.7463 -36.7450 -36.7252 -36.7010 -36.6960 -36.6569
   -36.6429 -36.6320 -36.6279 -36.6279 -17.1997 -17.1921 -17.1769 -17.1763
   -17.1407 -17.0968 -17.0741 -17.0262 -16.9974 -16.9867 -16.9734 -16.9718
    10.4813  11.0615  11.9971  12.1836  12.3525  12.6464  12.8044  12.8774
    13.0153  13.1960  13.6205  13.6448  13.7041  13.8995  13.9578  13.9642
    13.9844  14.0201  14.1162  14.2838  14.3314  14.3879  14.3911  14.4042
    14.4437  14.4815  14.4995  14.5405  14.5427  14.5586  14.6845  14.7418
    14.7730  15.0590  15.7516  16.0520  16.0678  16.1190  16.1483  16.2204
    16.2490  16.2908  16.3046  16.5635  16.6434  16.8291  16.9052  16.9572
    17.0315  17.0590  17.1279  17.1484  17.4121  17.5379  17.5620  17.6727
    17.8525  18.2039

          k = 0.0000-0.5774 0.1030 ( 15534 PWs)   bands (ev):

   -70.7657 -70.7449 -70.7314 -70.7288 -70.7148 -70.6994 -70.6994 -70.6913
   -40.8673 -40.8561 -40.8474 -40.8359 -37.0797 -37.0283 -36.9819 -36.9332
   -36.8718 -36.8558 -36.8556 -36.8224 -36.8051 -36.7894 -36.7773 -36.7637
   -36.7626 -36.7580 -36.7360 -36.7294 -36.7253 -36.6932 -36.6919 -36.6601
   -36.6465 -36.6314 -36.6310 -36.6280 -17.1978 -17.1911 -17.1774 -17.1774
   -17.1404 -17.1051 -17.0660 -17.0275 -16.9960 -16.9856 -16.9750 -16.9727
    10.5376  11.1036  11.7533  12.0841  12.5534  12.6615  12.7918  12.8772
    13.0503  13.2025  13.5845  13.6413  13.6972  13.9349  13.9552  13.9774
    14.0029  14.0031  14.0825  14.2104  14.2855  14.3648  14.3989  14.4127
    14.4244  14.4423  14.4909  14.5173  14.6496  14.6693  14.6816  14.7598
    14.8794  15.1270  15.7523  15.9751  16.0015  16.0915  16.1142  16.1392
    16.2067  16.2101  16.4860  16.6364  16.6869  16.7115  16.8021  16.8619
    16.9907  17.1623  17.1943  17.2781  17.3383  17.4999  17.7087  17.7415
    17.8445  18.1930

          k = 0.0000-0.5774 0.2061 ( 15496 PWs)   bands (ev):

   -70.7623 -70.7507 -70.7313 -70.7304 -70.7073 -70.6994 -70.6994 -70.6948
   -40.8657 -40.8600 -40.8435 -40.8375 -37.0730 -37.0469 -36.9609 -36.9369
   -36.8681 -36.8492 -36.8422 -36.8320 -36.8298 -36.8066 -36.7759 -36.7672
   -36.7630 -36.7626 -36.7299 -36.7258 -36.7058 -36.6810 -36.6760 -36.6697
   -36.6554 -36.6416 -36.6297 -36.6283 -17.1927 -17.1884 -17.1804 -17.1802
   -17.1376 -17.1183 -17.0530 -17.0324 -16.9917 -16.9827 -16.9794 -16.9753
    10.7011  11.1574  11.4805  11.8443  12.6628  12.7539  12.8054  12.9000
    13.1513  13.2504  13.4791  13.4851  13.7819  13.9334  13.9335  13.9520
    13.9750  14.0216  14.1254  14.1576  14.2928  14.3777  14.3851  14.3870
    14.4256  14.4517  14.4545  14.5024  14.6424  14.6625  14.8017  14.8043
    15.1675  15.3321  15.7289  15.7877  15.8801  15.9382  15.9892  16.0525
    16.2074  16.2294  16.5815  16.5859  16.7080  16.7488  16.8133  16.8175
    16.8347  17.1791  17.2700  17.3388  17.4738  17.4927  17.7820  17.8888
    17.8908  18.0869

          k = 0.0000-0.5774-0.3091 ( 15528 PWs)   bands (ev):

   -70.7571 -70.7571 -70.7310 -70.7310 -70.7003 -70.7003 -70.6994 -70.6994
   -40.8633 -40.8633 -40.8401 -40.8401 -37.0620 -37.0620 -36.9453 -36.9453
   -36.8548 -36.8548 -36.8398 -36.8398 -36.8253 -36.8253 -36.7728 -36.7728
   -36.7628 -36.7628 -36.7271 -36.7271 -36.6852 -36.6852 -36.6677 -36.6677
   -36.6573 -36.6573 -36.6288 -36.6288 -17.1859 -17.1859 -17.1845 -17.1845
   -17.1300 -17.1300 -17.0412 -17.0412 -16.9855 -16.9855 -16.9789 -16.9789
    10.9486  10.9486  11.5848  11.5848  12.7054  12.7054  12.9052  12.9052
    13.3050  13.3051  13.3503  13.3503  13.8705  13.8705  13.9304  13.9304
    13.9570  13.9570  14.2026  14.2026  14.3522  14.3522  14.3767  14.3767
    14.4067  14.4067  14.4820  14.4820  14.6451  14.6451  14.8357  14.8357
    15.5009  15.5009  15.5837  15.5837  15.8338  15.8338  15.9631  15.9631
    16.2285  16.2285  16.6276  16.6276  16.6603  16.6603  16.8185  16.8185
    16.9912  16.9912  17.3372  17.3372  17.6564  17.6564  17.6798  17.6798
    18.0462  18.0462

          k = 0.1667 0.2887 0.0000 ( 15488 PWs)   bands (ev):

   -70.7753 -70.7522 -70.7266 -70.7212 -70.7096 -70.6994 -70.6994 -70.6918
   -40.8757 -40.8609 -40.8426 -40.8270 -37.1299 -37.0611 -37.0042 -36.8954
   -36.8898 -36.8661 -36.8589 -36.8504 -36.8264 -36.7873 -36.7829 -36.7621
   -36.7474 -36.7455 -36.7452 -36.7049 -36.6841 -36.6555 -36.6500 -36.6497
   -36.6442 -36.6411 -36.6392 -36.6336 -17.1959 -17.1887 -17.1729 -17.1686
   -17.1473 -17.1146 -17.0563 -17.0183 -17.0055 -16.9907 -16.9762 -16.9756
     9.3921  11.2216  11.9112  12.2299  12.5137  12.5397  12.6034  12.8664
    12.9985  13.0172  13.3712  13.5187  13.5799  13.6499  13.7142  13.9105
    13.9481  14.1609  14.2129  14.2925  14.3374  14.4140  14.4368  14.4421
    14.5253  14.5853  14.6301  14.7857  14.9217  15.0298  15.1384  15.2904
    15.3368  15.4892  15.7586  15.8324  15.9354  16.0815  16.1784  16.2298
    16.2347  16.3207  16.5249  16.5474  16.5904  16.6571  16.7654  16.9187
    16.9448  17.0938  17.2225  17.2829  17.2951  17.3074  17.7391  17.7862
    17.7937  17.8688

          k = 0.1667 0.2887 0.1030 ( 15495 PWs)   bands (ev):

   -70.7742 -70.7547 -70.7254 -70.7213 -70.7083 -70.6994 -70.6994 -70.6929
   -40.8750 -40.8626 -40.8408 -40.8277 -37.1273 -37.0718 -36.9902 -36.9005
   -36.8884 -36.8608 -36.8581 -36.8496 -36.8243 -36.8185 -36.7793 -36.7703
   -36.7519 -36.7308 -36.7249 -36.7037 -36.6819 -36.6575 -36.6541 -36.6484
   -36.6456 -36.6416 -36.6391 -36.6360 -17.1941 -17.1878 -17.1741 -17.1703
   -17.1458 -17.1177 -17.0533 -17.0217 -17.0022 -16.9896 -16.9777 -16.9765
     9.4630  10.9172  12.1511  12.2315  12.5115  12.5261  12.5828  12.9788
    12.9927  13.0322  13.3228  13.4660  13.6114  13.6550  13.7267  13.9183
    13.9431  14.0883  14.1796  14.2406  14.3492  14.3775  14.4727  14.4814
    14.5877  14.6232  14.7291  14.8439  14.8984  15.0150  15.1724  15.2746
    15.3110  15.4992  15.7382  15.7724  15.8978  16.0418  16.1497  16.1819
    16.1974  16.3104  16.4157  16.6144  16.6292  16.7087  16.7375  16.9114
    16.9812  17.1457  17.2344  17.2838  17.3279  17.3406  17.6133  17.7593
    17.8276  17.9294

          k = 0.1667 0.2887 0.2061 ( 15507 PWs)   bands (ev):

   -70.7710 -70.7602 -70.7235 -70.7216 -70.7048 -70.6994 -70.6994 -70.6958
   -40.8731 -40.8663 -40.8370 -40.8298 -37.1196 -37.0903 -36.9627 -36.9133
   -36.8835 -36.8564 -36.8561 -36.8482 -36.8416 -36.8175 -36.8023 -36.7891
   -36.7312 -36.7197 -36.7041 -36.6965 -36.6748 -36.6644 -36.6624 -36.6504
   -36.6478 -36.6455 -36.6390 -36.6385 -17.1892 -17.1851 -17.1770 -17.1752
   -17.1411 -17.1250 -17.0459 -17.0286 -16.9956 -16.9868 -16.9819 -16.9792
     9.6718  10.4388  12.2433  12.3350  12.4742  12.5508  12.7069  12.9675
    13.0619  13.1414  13.2277  13.3669  13.6550  13.6700  13.7319  13.8975
    13.9706  14.0186  14.1276  14.1461  14.3256  14.4170  14.5558  14.5768
    14.6542  14.6578  14.8646  14.8681  14.9489  14.9890  15.1419  15.2430
    15.3545  15.5380  15.6607  15.7626  15.8362  15.9139  15.9705  16.0164
    16.1884  16.2953  16.4901  16.6065  16.6639  16.6851  16.7276  16.8494
    17.0941  17.2274  17.2640  17.3167  17.3725  17.4420  17.5393  17.6767
    17.7846  17.9388

          k = 0.1667 0.2887-0.3091 ( 15492 PWs)   bands (ev):

   -70.7661 -70.7661 -70.7222 -70.7222 -70.7001 -70.7001 -70.6994 -70.6994
   -40.8700 -40.8700 -40.8331 -40.8331 -37.1070 -37.1070 -36.9345 -36.9345
   -36.8725 -36.8725 -36.8543 -36.8543 -36.8239 -36.8239 -36.8055 -36.8055
   -36.7208 -36.7208 -36.6896 -36.6896 -36.6712 -36.6712 -36.6622 -36.6622
   -36.6471 -36.6471 -36.6388 -36.6388 -17.1828 -17.1828 -17.1805 -17.1805
   -17.1336 -17.1336 -17.0371 -17.0371 -16.9885 -16.9885 -16.9828 -16.9828
    10.0055  10.0055  12.2799  12.2799  12.5482  12.5482  12.8649  12.8649
    13.1291  13.1291  13.2720  13.2720  13.6666  13.6666  13.7939  13.7939
    14.0108  14.0108  14.1169  14.1169  14.3730  14.3730  14.6166  14.6166
    14.6665  14.6665  14.9161  14.9161  14.9556  14.9556  15.1528  15.1528
    15.5086  15.5086  15.7507  15.7507  15.7703  15.7703  15.8884  15.8884
    16.2473  16.2473  16.5682  16.5682  16.6661  16.6661  16.7615  16.7615
    17.2100  17.2100  17.2824  17.2824  17.4687  17.4687  17.5908  17.5908
    17.8121  17.8121

          k = 0.1667 0.4811 0.0000 ( 15511 PWs)   bands (ev):

   -70.7668 -70.7424 -70.7314 -70.7266 -70.7194 -70.6994 -70.6994 -70.6901
   -40.8677 -40.8525 -40.8510 -40.8354 -37.0772 -37.0081 -37.0001 -36.9347
   -36.8897 -36.8691 -36.8607 -36.8107 -36.7876 -36.7843 -36.7769 -36.7652
   -36.7635 -36.7505 -36.7492 -36.7392 -36.6988 -36.6934 -36.6800 -36.6536
   -36.6462 -36.6458 -36.6449 -36.6282 -17.1993 -17.1938 -17.1807 -17.1777
   -17.1321 -17.0900 -17.0794 -17.0342 -16.9961 -16.9833 -16.9777 -16.9675
    10.2866  11.5120  11.9159  12.3081  12.3244  12.6046  12.6526  12.8364
    12.8801  13.1325  13.6516  13.7015  13.7642  13.8268  13.8405  13.9088
    13.9106  14.0353  14.1874  14.2039  14.2347  14.3122  14.4061  14.4169
    14.4860  14.5004  14.5279  14.5484  14.6177  14.7073  14.8340  14.8521
    14.9843  15.1270  15.6561  15.7824  15.9411  15.9524  16.0818  16.1499
    16.3901  16.4232  16.4561  16.6023  16.6770  16.7221  16.8233  16.9507
    17.1271  17.1277  17.2054  17.2230  17.3219  17.4604  17.7237  17.7897
    17.9205  18.0267

          k = 0.1667 0.4811 0.1030 ( 15506 PWs)   bands (ev):

   -70.7657 -70.7449 -70.7314 -70.7288 -70.7148 -70.6994 -70.6994 -70.6913
   -40.8672 -40.8561 -40.8474 -40.8360 -37.0750 -37.0253 -36.9822 -36.9362
   -36.8877 -36.8645 -36.8582 -36.8141 -36.8046 -36.7898 -36.7808 -36.7736
   -36.7587 -36.7537 -36.7324 -36.7285 -36.6949 -36.6911 -36.6786 -36.6570
   -36.6494 -36.6459 -36.6439 -36.6314 -17.1980 -17.1924 -17.1820 -17.1777
   -17.1324 -17.1010 -17.0686 -17.0346 -16.9955 -16.9822 -16.9792 -16.9685
    10.3478  11.4673  11.7414  12.2504  12.5420  12.5543  12.6669  12.8192
    12.9597  13.1597  13.5941  13.6512  13.7842  13.8098  13.8864  13.9008
    13.9553  14.0405  14.0893  14.1541  14.2500  14.2680  14.3629  14.4403
    14.4536  14.5100  14.5384  14.5864  14.6468  14.7931  14.8526  14.9191
    15.0245  15.1644  15.6509  15.7500  15.8438  15.9774  16.0674  16.1131
    16.2614  16.3403  16.5646  16.6115  16.6876  16.6980  16.8387  16.9737
    17.0829  17.1391  17.1958  17.2752  17.3333  17.4470  17.6580  17.9022
    17.9560  18.0036

          k = 0.1667 0.4811 0.2061 ( 15510 PWs)   bands (ev):

   -70.7623 -70.7507 -70.7313 -70.7304 -70.7073 -70.6994 -70.6994 -70.6948
   -40.8657 -40.8600 -40.8435 -40.8376 -37.0686 -37.0433 -36.9631 -36.9408
   -36.8788 -36.8540 -36.8516 -36.8339 -36.8207 -36.8077 -36.7813 -36.7781
   -36.7571 -36.7554 -36.7152 -36.7116 -36.6917 -36.6787 -36.6730 -36.6662
   -36.6566 -36.6475 -36.6434 -36.6392 -17.1945 -17.1883 -17.1853 -17.1789
   -17.1313 -17.1146 -17.0553 -17.0374 -16.9931 -16.9832 -16.9791 -16.9713
    10.5269  11.1616  11.7635  12.1146  12.5327  12.6292  12.7740  12.8282
    13.1150  13.2297  13.4686  13.5165  13.8058  13.8401  13.8884  13.9155
    13.9623  14.0301  14.0509  14.1287  14.2148  14.2787  14.3361  14.3702
    14.4269  14.4812  14.5485  14.6031  14.7214  14.8400  14.9586  14.9905
    15.2107  15.3177  15.6256  15.6503  15.7140  15.8657  16.0124  16.0745
    16.1421  16.2316  16.5890  16.6387  16.6699  16.7456  16.8631  16.9797
    17.0596  17.1382  17.2398  17.2918  17.3296  17.4767  17.6751  17.8305
    17.9736  18.1270

          k = 0.1667 0.4811-0.3091 ( 15512 PWs)   bands (ev):

   -70.7571 -70.7571 -70.7310 -70.7310 -70.7003 -70.7003 -70.6994 -70.6994
   -40.8632 -40.8632 -40.8401 -40.8401 -37.0579 -37.0579 -36.9493 -36.9493
   -36.8607 -36.8607 -36.8458 -36.8458 -36.8227 -36.8227 -36.7804 -36.7804
   -36.7563 -36.7563 -36.7073 -36.7073 -36.6802 -36.6802 -36.6675 -36.6675
   -36.6579 -36.6579 -36.6428 -36.6428 -17.1900 -17.1900 -17.1828 -17.1828
   -17.1254 -17.1254 -17.0443 -17.0443 -16.9884 -16.9884 -16.9751 -16.9751
    10.8089  10.8089  11.9236  11.9236  12.5858  12.5858  12.8292  12.8292
    13.2934  13.2934  13.3689  13.3689  13.8366  13.8366  13.8810  13.8810
    14.0048  14.0048  14.0861  14.0861  14.2451  14.2451  14.3602  14.3602
    14.4257  14.4257  14.5652  14.5652  14.7966  14.7966  15.0273  15.0273
    15.4250  15.4250  15.5722  15.5722  15.6831  15.6831  15.9961  15.9961
    16.1687  16.1687  16.6238  16.6238  16.7091  16.7091  16.9216  16.9216
    17.0970  17.0970  17.2711  17.2711  17.4321  17.4321  17.7495  17.7495
    18.0024  18.0024

          k = 0.3333 0.5774 0.0000 ( 15498 PWs)   bands (ev):

   -70.7628 -70.7359 -70.7359 -70.7266 -70.7259 -70.6994 -70.6994 -70.6897
   -40.8594 -40.8594 -40.8440 -40.8440 -37.0420 -36.9986 -36.9680 -36.9680
   -36.9207 -36.8661 -36.8661 -36.7890 -36.7890 -36.7782 -36.7782 -36.7700
   -36.7614 -36.7614 -36.7567 -36.6956 -36.6956 -36.6942 -36.6805 -36.6805
   -36.6731 -36.6495 -36.6495 -36.6268 -17.2035 -17.1872 -17.1872 -17.1860
   -17.1060 -17.1060 -17.0611 -17.0611 -16.9862 -16.9862 -16.9788 -16.9630
    10.8821  11.6224  11.6224  12.3703  12.4063  12.6307  12.6307  12.7342
    12.7342  13.0876  13.7834  13.7834  13.8574  13.8574  13.9718  13.9718
    13.9743  13.9775  14.0165  14.0165  14.1079  14.2104  14.2560  14.2560
    14.5164  14.5164  14.5285  14.5852  14.5852  14.8858  14.8858  14.9429
    14.9785  15.0585  15.6615  15.7041  15.7041  15.7457  15.7457  16.0387
    16.5537  16.5537  16.5740  16.5740  16.7893  16.7893  16.9448  16.9448
    16.9703  17.1393  17.3134  17.3848  17.3848  17.4004  17.7707  17.7707
    17.8196  17.9664

          k = 0.3333 0.5774 0.1030 ( 15495 PWs)   bands (ev):

   -70.7615 -70.7359 -70.7359 -70.7357 -70.7168 -70.6994 -70.6994 -70.6909
   -40.8595 -40.8595 -40.8439 -40.8439 -37.0402 -37.0040 -36.9682 -36.9682
   -36.9116 -36.8630 -36.8630 -36.7961 -36.7939 -36.7939 -36.7860 -36.7860
   -36.7519 -36.7519 -36.7342 -36.6948 -36.6930 -36.6930 -36.6801 -36.6801
   -36.6712 -36.6520 -36.6520 -36.6301 -17.2024 -17.1872 -17.1860 -17.1860
   -17.1098 -17.1098 -17.0577 -17.0577 -16.9871 -16.9871 -16.9776 -16.9640
    10.9327  11.6633  11.6633  11.9945  12.5126  12.5126  12.7846  12.8046
    12.8046  13.1216  13.7467  13.7467  13.8400  13.9078  13.9078  13.9262
    13.9605  13.9605  14.0193  14.0193  14.1469  14.1874  14.1935  14.1935
    14.4642  14.4642  14.5635  14.7221  14.7221  14.8816  14.8918  14.8918
    15.0743  15.1417  15.6175  15.6175  15.6321  15.8293  15.8293  15.9793
    16.3956  16.3956  16.6312  16.6312  16.7986  16.7986  16.9609  16.9932
    16.9932  17.1684  17.2192  17.3740  17.3740  17.4101  17.7661  17.7661
    17.9609  17.9609

          k = 0.3333 0.5774 0.2061 ( 15513 PWs)   bands (ev):

   -70.7579 -70.7445 -70.7359 -70.7359 -70.7080 -70.6994 -70.6994 -70.6946
   -40.8596 -40.8596 -40.8439 -40.8439 -37.0349 -37.0152 -36.9686 -36.9686
   -36.8894 -36.8550 -36.8550 -36.8288 -36.8106 -36.8106 -36.7872 -36.7872
   -36.7427 -36.7427 -36.7133 -36.6967 -36.6872 -36.6872 -36.6776 -36.6776
   -36.6644 -36.6592 -36.6592 -36.6394 -17.1993 -17.1906 -17.1835 -17.1835
   -17.1165 -17.1165 -17.0517 -17.0517 -16.9890 -16.9890 -16.9746 -16.9667
    11.0814  11.6301  11.7688  11.7688  12.3335  12.3335  12.8636  12.8636
    13.1507  13.2192  13.6293  13.7130  13.7130  13.7753  13.9028  13.9028
    13.9376  13.9376  14.0784  14.0784  14.1479  14.1520  14.1585  14.1585
    14.4176  14.4176  14.6432  14.7507  14.7507  14.8109  15.0470  15.0470
    15.2235  15.3331  15.4985  15.4985  15.5528  15.8207  15.9097  15.9097
    16.2262  16.2262  16.6361  16.6361  16.8109  16.8109  16.9564  17.0744
    17.0744  17.0773  17.2498  17.3353  17.3353  17.3995  17.7759  17.7759
    17.9194  17.9194

          k = 0.3333 0.5774-0.3091 ( 15564 PWs)   bands (ev):

   -70.7521 -70.7521 -70.7359 -70.7359 -70.7004 -70.7004 -70.6994 -70.6994
   -40.8596 -40.8596 -40.8438 -40.8438 -37.0263 -37.0263 -36.9688 -36.9688
   -36.8607 -36.8607 -36.8488 -36.8488 -36.8203 -36.8203 -36.7873 -36.7873
   -36.7397 -36.7397 -36.7017 -36.7017 -36.6849 -36.6849 -36.6693 -36.6693
   -36.6692 -36.6692 -36.6524 -36.6524 -17.1950 -17.1950 -17.1821 -17.1821
   -17.1197 -17.1197 -17.0489 -17.0489 -16.9900 -16.9900 -16.9706 -16.9706
    11.3189  11.3189  11.8486  11.8486  12.2270  12.2270  12.8826  12.8826
    13.3421  13.3421  13.5595  13.5595  13.6997  13.6997  13.8811  13.8811
    13.9273  13.9273  14.1242  14.1242  14.1392  14.1392  14.1649  14.1649
    14.3897  14.3897  14.7282  14.7282  14.7306  14.7306  15.1908  15.1908
    15.3754  15.3754  15.3970  15.3970  15.6104  15.6104  15.9407  15.9407
    16.1580  16.1580  16.6341  16.6341  16.8158  16.8158  16.9892  16.9892
    17.1182  17.1182  17.3024  17.3024  17.3383  17.3383  17.7864  17.7864
    17.8919  17.8920

     the Fermi energy is    16.1668 ev

!    total energy              =   -3111.34574714 Ry
     estimated scf accuracy    <          3.2E-10 Ry
     smearing contrib. (-TS)   =       0.00009765 Ry
     internal energy E=F+TS    =   -3111.34584479 Ry

     The total energy is F=E-TS. E is the sum of the following terms:
     one-electron contribution =   -1208.35680636 Ry
     hartree contribution      =     698.26930843 Ry
     xc contribution           =    -349.40344366 Ry
     ewald contribution        =   -1642.60130586 Ry
     one-center paw contrib.   =    -609.25359733 Ry

     convergence has been achieved in  28 iterations

     negative rho (up, down):  3.378E-03 0.000E+00

     Forces acting on atoms (cartesian axes, Ry/au):

     atom    1 type  1   force =    -0.01337059    0.00771951   -0.00000000
     atom    2 type  1   force =     0.01337059   -0.00771951    0.00000000
     atom    3 type  1   force =     0.00000000    0.01543903    0.00000000
     atom    4 type  1   force =     0.01337059    0.00771951   -0.00000000
     atom    5 type  1   force =     0.00000000   -0.01543903    0.00000000
     atom    6 type  1   force =    -0.01337059   -0.00771951   -0.00000000
     atom    7 type  1   force =     0.00000000    0.00000000    0.00000000
     atom    8 type  1   force =     0.00000000    0.00000000   -0.00000000
     atom    9 type  2   force =     0.00000000    0.00000000   -0.01102561
     atom   10 type  2   force =     0.00000000    0.00000000   -0.01102561
     atom   11 type  2   force =     0.00000000   -0.00000000    0.01102561
     atom   12 type  2   force =     0.00000000    0.00000000    0.01102561

     Total force =     0.043777     Total SCF correction =     0.000038


     Computing stress (Cartesian axis) and pressure


     negative rho (up, down):  3.378E-03 0.000E+00
          total   stress  (Ry/bohr**3)                   (kbar)     P=     -153.15
  -0.00112644   0.00000000   0.00000000         -165.70        0.00        0.00
   0.00000000  -0.00112644   0.00000000            0.00     -165.70        0.00
   0.00000000   0.00000000  -0.00087044            0.00        0.00     -128.05


     Writing all to output data dir ./FeAl.save/ :
     XML data file, charge density, pseudopotentials, collected wavefunctions

     init_run     :      4.31s CPU      4.44s WALL (       1 calls)
     electrons    :    223.61s CPU    229.88s WALL (       1 calls)
     forces       :      1.07s CPU      1.11s WALL (       1 calls)
     stress       :      4.29s CPU      4.35s WALL (       1 calls)

     Called by init_run:
     wfcinit      :      2.99s CPU      3.07s WALL (       1 calls)
     potinit      :      0.58s CPU      0.60s WALL (       1 calls)
     hinit0       :      0.39s CPU      0.40s WALL (       1 calls)

     Called by electrons:
     c_bands      :    190.99s CPU    195.38s WALL (      28 calls)
     sum_band     :     24.38s CPU     25.35s WALL (      28 calls)
     v_of_rho     :      0.60s CPU      0.65s WALL (      29 calls)
     newd         :      2.61s CPU      3.15s WALL (      29 calls)
     PAW_pot      :      5.11s CPU      5.32s WALL (      29 calls)
     mix_rho      :      0.11s CPU      0.12s WALL (      28 calls)

     Called by c_bands:
     init_us_2    :      2.12s CPU      2.15s WALL (    1652 calls)
     cegterg      :    184.39s CPU    188.53s WALL (     784 calls)

     Called by *egterg:
     cdiaghg      :     35.66s CPU     35.94s WALL (    2913 calls)
     h_psi        :    101.41s CPU    103.85s WALL (    2941 calls)
     s_psi        :      8.95s CPU      9.14s WALL (    2941 calls)
     g_psi        :      0.43s CPU      0.43s WALL (    2129 calls)

     Called by h_psi:
     h_psi:calbec :     13.49s CPU     13.67s WALL (    2941 calls)
     vloc_psi     :     78.33s CPU     79.99s WALL (    2941 calls)
     add_vuspsi   :      8.94s CPU      9.05s WALL (    2941 calls)

     General routines
     calbec       :     21.13s CPU     21.38s WALL (    4201 calls)
     fft          :      0.71s CPU      0.79s WALL (     400 calls)
     ffts         :      0.40s CPU      0.41s WALL (      57 calls)
     fftw         :     78.34s CPU     79.87s WALL (  512940 calls)
     interpolate  :      0.43s CPU      0.44s WALL (      29 calls)

     Parallel routines

     PWSCF        :    233.96s CPU    248.81s WALL


   This run was terminated on:  16:27:34  27Oct2025            

=------------------------------------------------------------------------------=
   JOB DONE.
=------------------------------------------------------------------------------=
Note: The following floating-point exceptions are signalling: IEEE_UNDERFLOW_FLAG IEEE_DENORMAL
Note: The following floating-point exceptions are signalling: IEEE_UNDERFLOW_FLAG IEEE_DENORMAL
Note: The following floating-point exceptions are signalling: IEEE_UNDERFLOW_FLAG IEEE_DENORMAL
Note: The following floating-point exceptions are signalling: IEEE_UNDERFLOW_FLAG IEEE_DENORMAL
Note: The following floating-point exceptions are signalling: IEEE_UNDERFLOW_FLAG IEEE_DENORMAL
Note: The following floating-point exceptions are signalling: IEEE_UNDERFLOW_FLAG IEEE_DENORMAL
Note: The following floating-point exceptions are signalling: IEEE_UNDERFLOW_FLAG IEEE_DENORMAL
Note: The following floating-point exceptions are signalling: IEEE_UNDERFLOW_FLAG IEEE_DENORMAL
Note: The following floating-point exceptions are signalling: IEEE_UNDERFLOW_FLAG IEEE_DENORMAL
Note: The following floating-point exceptions are signalling: IEEE_UNDERFLOW_FLAG IEEE_DENORMAL
Note: The following floating-point exceptions are signalling: IEEE_UNDERFLOW_FLAG IEEE_DENORMAL
Note: The following floating-point exceptions are signalling: IEEE_UNDERFLOW_FLAG IEEE_DENORMAL
Note: The following floating-point exceptions are signalling: IEEE_UNDERFLOW_FLAG IEEE_DENORMAL
Note: The following floating-point exceptions are signalling: IEEE_UNDERFLOW_FLAG IEEE_DENORMAL
Note: The following floating-point exceptions are signalling: IEEE_UNDERFLOW_FLAG IEEE_DENORMAL
Note: The following floating-point exceptions are signalling: IEEE_UNDERFLOW_FLAG IEEE_DENORMAL
