
     Program PWSCF v.7.4 starts on 27Oct2025 at 16:11:24 

     This program is part of the open-source Quantum ESPRESSO suite
     for quantum simulation of materials; please cite
         "P. Giannozzi et al., J. Phys.:Condens. Matter 21 395502 (2009);
         "P. Giannozzi et al., J. Phys.:Condens. Matter 29 465901 (2017);
         "P. Giannozzi et al., J. Chem. Phys. 152 154105 (2020);
          URL http://www.quantum-espresso.org", 
     in publications or presentations arising from this work. More details at
     http://www.quantum-espresso.org/quote

     Parallel version (MPI & OpenMP), running on      16 processor cores
     Number of MPI processes:                16
     Threads/MPI process:                     1

     MPI processes distributed on     1 nodes
     226940 MiB available memory on the printing compute node when the environment starts

     Reading input from TiFe2_ecutrho_convergence/TiFe2_factor4.in

     Current dimensions of program PWSCF are:
     Max number of different atomic species (ntypx) = 10
     Max number of k-points (npk) =  40000
     Max angular momentum in pseudopotentials (lmaxx) =  4
     file Fe.pbe-spn-kjpaw_psl.0.2.1.UPF: wavefunction(s)  3D renormalized

     IMPORTANT: XC functional enforced from input :
     Exchange-correlation= PBE
                           (   1   4   3   4   0   0   0)
     Any further DFT definition will be discarded
     Please, verify this is what you really want

     Message from routine setup:
     using ibrav=0 with symmetry is DISCOURAGED, use correct ibrav instead

     R & G space division:  proc/nbgrp/npool/nimage =      16
     Subspace diagonalization in iterative solution of the eigenvalue problem:
     a serial algorithm will be used


     Parallelization info
     --------------------
     sticks:   dense  smooth     PW     G-vecs:    dense   smooth      PW
     Min         129     129     36                 7763     7763    1138
     Max         131     131     37                 7768     7768    1143
     Sum        2077    2077    583               124229   124229   18233

     Using Slab Decomposition



     bravais-lattice index     =            0
     lattice parameter (alat)  =       9.1568  a.u.
     unit-cell volume          =    1075.5644 (a.u.)^3
     number of atoms/cell      =           12
     number of atomic types    =            2
     number of electrons       =       176.00
     number of Kohn-Sham states=          106
     kinetic-energy cutoff     =      90.0000  Ry
     charge density cutoff     =     360.0000  Ry
     scf convergence threshold =      1.0E-08
     mixing beta               =       0.7000
     number of iterations used =            8  plain     mixing
     Exchange-correlation= PBE
                           (   1   4   3   4   0   0   0)

     celldm(1)=   9.156781  celldm(2)=   0.000000  celldm(3)=   0.000000
     celldm(4)=   0.000000  celldm(5)=   0.000000  celldm(6)=   0.000000

     crystal axes: (cart. coord. in units of alat)
               a(1) = (   1.000000   0.000000   0.000000 )  
               a(2) = (  -0.500000   0.866025   0.000000 )  
               a(3) = (   0.000000   0.000000   1.617623 )  

     reciprocal axes: (cart. coord. in units 2 pi/alat)
               b(1) = (  1.000000  0.577350 -0.000000 )  
               b(2) = (  0.000000  1.154701  0.000000 )  
               b(3) = (  0.000000 -0.000000  0.618191 )  


     PseudoPot. # 1 for Fe read from file:
     ./Fe.pbe-spn-kjpaw_psl.0.2.1.UPF
     MD5 check sum: e86618425769142926afa95317d90200
     Pseudo is Projector augmented-wave + core cor, Zval = 16.0
     Generated using "atomic" code by A. Dal Corso  v.5.0.99 svn rev. 10869
     Shape of augmentation charge: PSQ
     Using radial grid of 1191 points,  6 beta functions with: 
                l(1) =   0
                l(2) =   0
                l(3) =   1
                l(4) =   1
                l(5) =   2
                l(6) =   2
     Q(r) pseudized with 0 coefficients 


     PseudoPot. # 2 for Ti read from file:
     ./Ti_pbe_v1.4.uspp.F.UPF
     MD5 check sum: 88a00a6731bd790ddea75d31a80cb452
     Pseudo is Ultrasoft + core correction, Zval = 12.0
     Generated by new atomic code, or converted to UPF format
     Using radial grid of  851 points,  6 beta functions with: 
                l(1) =   0
                l(2) =   0
                l(3) =   1
                l(4) =   1
                l(5) =   2
                l(6) =   2
     Q(r) pseudized with  6 coefficients,  rinner =    1.000   1.000   1.000
                                                       1.000   1.000

     atomic species   valence    mass     pseudopotential
     Fe               16.00    55.84500     Fe( 1.00)
     Ti               12.00    47.86700     Ti( 1.00)

     24 Sym. Ops., with inversion, found (12 have fractional translation)



   Cartesian axes

     site n.     atom                  positions (alat units)
         1        Fe     tau(   1) = (   0.7465670   0.1463196   0.4044057  )
         2        Fe     tau(   2) = (  -0.2465670   0.7197058   1.2132171  )
         3        Fe     tau(   3) = (  -0.0000000   0.2926392   1.2132171  )
         4        Fe     tau(   4) = (   0.2534330   0.1463196   0.4044057  )
         5        Fe     tau(   5) = (   0.5000000   0.5733862   0.4044057  )
         6        Fe     tau(   6) = (   0.2465670   0.7197058   1.2132171  )
         7        Fe     tau(   7) = (   0.0000000   0.0000000   0.0000000  )
         8        Fe     tau(   8) = (   0.0000000   0.0000000   0.8088114  )
         9        Ti     tau(   9) = (   0.5000000   0.2886751   1.5200090  )
        10        Ti     tau(  10) = (  -0.0000000   0.5773503   0.7111976  )
        11        Ti     tau(  11) = (  -0.0000000   0.5773503   0.0976138  )
        12        Ti     tau(  12) = (   0.5000000   0.2886751   0.9064252  )

     number of k points=    28  Marzari-Vanderbilt smearing, width (Ry)=  0.0050
                       cart. coord. in units 2pi/alat
        k(    1) = (   0.0000000   0.0000000   0.0000000), wk =   0.0092593
        k(    2) = (   0.0000000   0.0000000   0.1030318), wk =   0.0185185
        k(    3) = (   0.0000000   0.0000000   0.2060637), wk =   0.0185185
        k(    4) = (   0.0000000   0.0000000  -0.3090955), wk =   0.0092593
        k(    5) = (   0.0000000   0.1924501   0.0000000), wk =   0.0555556
        k(    6) = (   0.0000000   0.1924501   0.1030318), wk =   0.1111111
        k(    7) = (   0.0000000   0.1924501   0.2060637), wk =   0.1111111
        k(    8) = (   0.0000000   0.1924501  -0.3090955), wk =   0.0555556
        k(    9) = (   0.0000000   0.3849002   0.0000000), wk =   0.0555556
        k(   10) = (   0.0000000   0.3849002   0.1030318), wk =   0.1111111
        k(   11) = (   0.0000000   0.3849002   0.2060637), wk =   0.1111111
        k(   12) = (   0.0000000   0.3849002  -0.3090955), wk =   0.0555556
        k(   13) = (   0.0000000  -0.5773503   0.0000000), wk =   0.0277778
        k(   14) = (   0.0000000  -0.5773503   0.1030318), wk =   0.0555556
        k(   15) = (   0.0000000  -0.5773503   0.2060637), wk =   0.0555556
        k(   16) = (   0.0000000  -0.5773503  -0.3090955), wk =   0.0277778
        k(   17) = (   0.1666667   0.2886751   0.0000000), wk =   0.0555556
        k(   18) = (   0.1666667   0.2886751   0.1030318), wk =   0.1111111
        k(   19) = (   0.1666667   0.2886751   0.2060637), wk =   0.1111111
        k(   20) = (   0.1666667   0.2886751  -0.3090955), wk =   0.0555556
        k(   21) = (   0.1666667   0.4811252   0.0000000), wk =   0.1111111
        k(   22) = (   0.1666667   0.4811252   0.1030318), wk =   0.2222222
        k(   23) = (   0.1666667   0.4811252   0.2060637), wk =   0.2222222
        k(   24) = (   0.1666667   0.4811252  -0.3090955), wk =   0.1111111
        k(   25) = (   0.3333333   0.5773503   0.0000000), wk =   0.0185185
        k(   26) = (   0.3333333   0.5773503   0.1030318), wk =   0.0370370
        k(   27) = (   0.3333333   0.5773503   0.2060637), wk =   0.0370370
        k(   28) = (   0.3333333   0.5773503  -0.3090955), wk =   0.0185185

     Dense  grid:   124229 G-vectors     FFT dimensions: (  60,  60,  90)

     Estimated max dynamical RAM per process >      81.37 MB

     Estimated total dynamical RAM >       1.27 GB

     Check: negative core charge=   -0.000091

     Initial potential from superposition of free atoms

     starting charge     171.9963, renormalised to     176.0000

     negative rho (up, down):  4.212E-03 0.000E+00
     Starting wfcs are  144 randomized atomic wfcs
     Checking if some PAW data can be deallocated... 

     total cpu time spent up to now is        3.9 secs

     per-process dynamical memory:   172.5 Mb

     Self-consistent Calculation

     iteration #  1     ecut=    90.00 Ry     beta= 0.70
     Davidson diagonalization with overlap
     ethr =  1.00E-02,  avg # of iterations =  2.0

     negative rho (up, down):  6.909E-04 0.000E+00

     total cpu time spent up to now is       11.3 secs

     total energy              =   -3017.02691187 Ry
     estimated scf accuracy    <     116.55201398 Ry

     iteration #  2     ecut=    90.00 Ry     beta= 0.70
     Davidson diagonalization with overlap
     ethr =  1.00E-02,  avg # of iterations =  6.7

     total cpu time spent up to now is       26.5 secs

     total energy              =   -3075.97135369 Ry
     estimated scf accuracy    <     699.77729452 Ry

     iteration #  3     ecut=    90.00 Ry     beta= 0.70
     Davidson diagonalization with overlap
     ethr =  1.00E-02,  avg # of iterations =  5.1

     total cpu time spent up to now is       38.2 secs

     total energy              =   -3120.92582442 Ry
     estimated scf accuracy    <      91.50562672 Ry

     iteration #  4     ecut=    90.00 Ry     beta= 0.70
     Davidson diagonalization with overlap
     ethr =  1.00E-02,  avg # of iterations =  1.2

     total cpu time spent up to now is       44.0 secs

     total energy              =   -3116.48893405 Ry
     estimated scf accuracy    <      54.40377985 Ry

     iteration #  5     ecut=    90.00 Ry     beta= 0.70
     Davidson diagonalization with overlap
     ethr =  1.00E-02,  avg # of iterations =  1.7

     total cpu time spent up to now is       50.2 secs

     total energy              =   -3115.18240286 Ry
     estimated scf accuracy    <      41.79827924 Ry

     iteration #  6     ecut=    90.00 Ry     beta= 0.70
     Davidson diagonalization with overlap
     ethr =  1.00E-02,  avg # of iterations =  1.0

     negative rho (up, down):  3.548E-04 0.000E+00

     total cpu time spent up to now is       55.9 secs

     total energy              =   -3113.67013158 Ry
     estimated scf accuracy    <      26.01073198 Ry

     iteration #  7     ecut=    90.00 Ry     beta= 0.70
     Davidson diagonalization with overlap
     ethr =  1.00E-02,  avg # of iterations =  1.0

     negative rho (up, down):  1.715E-03 0.000E+00

     total cpu time spent up to now is       61.6 secs

     total energy              =   -3111.34366288 Ry
     estimated scf accuracy    <      18.33828194 Ry

     iteration #  8     ecut=    90.00 Ry     beta= 0.70
     Davidson diagonalization with overlap
     ethr =  1.00E-02,  avg # of iterations =  1.0

     negative rho (up, down):  2.039E-03 0.000E+00

     total cpu time spent up to now is       67.3 secs

     total energy              =   -3111.48464919 Ry
     estimated scf accuracy    <       6.17530077 Ry

     iteration #  9     ecut=    90.00 Ry     beta= 0.70
     Davidson diagonalization with overlap
     ethr =  3.51E-03,  avg # of iterations =  1.8

     negative rho (up, down):  2.584E-03 0.000E+00

     total cpu time spent up to now is       73.5 secs

     total energy              =   -3111.23684056 Ry
     estimated scf accuracy    <       4.39334814 Ry

     iteration # 10     ecut=    90.00 Ry     beta= 0.70
     Davidson diagonalization with overlap
     ethr =  2.50E-03,  avg # of iterations =  2.2

     negative rho (up, down):  3.903E-03 0.000E+00

     total cpu time spent up to now is       80.0 secs

     total energy              =   -3110.91987842 Ry
     estimated scf accuracy    <       1.49667504 Ry

     iteration # 11     ecut=    90.00 Ry     beta= 0.70
     Davidson diagonalization with overlap
     ethr =  8.50E-04,  avg # of iterations =  5.1

     negative rho (up, down):  3.379E-03 0.000E+00

     total cpu time spent up to now is       90.3 secs

     total energy              =   -3111.28806922 Ry
     estimated scf accuracy    <       7.10632779 Ry

     iteration # 12     ecut=    90.00 Ry     beta= 0.70
     Davidson diagonalization with overlap
     ethr =  8.50E-04,  avg # of iterations =  1.2

     negative rho (up, down):  2.442E-03 0.000E+00

     total cpu time spent up to now is       96.1 secs

     total energy              =   -3111.10250926 Ry
     estimated scf accuracy    <       1.48459168 Ry

     iteration # 13     ecut=    90.00 Ry     beta= 0.70
     Davidson diagonalization with overlap
     ethr =  8.44E-04,  avg # of iterations =  3.2

     negative rho (up, down):  2.818E-03 0.000E+00

     total cpu time spent up to now is      103.6 secs

     total energy              =   -3111.40035870 Ry
     estimated scf accuracy    <       1.36230579 Ry

     iteration # 14     ecut=    90.00 Ry     beta= 0.70
     Davidson diagonalization with overlap
     ethr =  7.74E-04,  avg # of iterations =  1.0

     negative rho (up, down):  3.055E-03 0.000E+00

     total cpu time spent up to now is      109.3 secs

     total energy              =   -3111.33517611 Ry
     estimated scf accuracy    <       0.87195006 Ry

     iteration # 15     ecut=    90.00 Ry     beta= 0.70
     Davidson diagonalization with overlap
     ethr =  4.95E-04,  avg # of iterations =  1.2

     negative rho (up, down):  3.096E-03 0.000E+00

     total cpu time spent up to now is      115.1 secs

     total energy              =   -3111.35046045 Ry
     estimated scf accuracy    <       0.13597896 Ry

     iteration # 16     ecut=    90.00 Ry     beta= 0.70
     Davidson diagonalization with overlap
     ethr =  7.73E-05,  avg # of iterations =  2.0

     negative rho (up, down):  3.114E-03 0.000E+00

     total cpu time spent up to now is      121.4 secs

     total energy              =   -3111.35134769 Ry
     estimated scf accuracy    <       0.07005502 Ry

     iteration # 17     ecut=    90.00 Ry     beta= 0.70
     Davidson diagonalization with overlap
     ethr =  3.98E-05,  avg # of iterations =  2.1

     negative rho (up, down):  3.173E-03 0.000E+00

     total cpu time spent up to now is      127.5 secs

     total energy              =   -3111.34714206 Ry
     estimated scf accuracy    <       0.07016702 Ry

     iteration # 18     ecut=    90.00 Ry     beta= 0.70
     Davidson diagonalization with overlap
     ethr =  3.98E-05,  avg # of iterations =  1.6

     negative rho (up, down):  3.228E-03 0.000E+00

     total cpu time spent up to now is      133.5 secs

     total energy              =   -3111.34601889 Ry
     estimated scf accuracy    <       0.02085791 Ry

     iteration # 19     ecut=    90.00 Ry     beta= 0.70
     Davidson diagonalization with overlap
     ethr =  1.19E-05,  avg # of iterations =  5.9

     negative rho (up, down):  3.228E-03 0.000E+00

     total cpu time spent up to now is      141.6 secs

     total energy              =   -3111.34766475 Ry
     estimated scf accuracy    <       0.00001478 Ry

     iteration # 20     ecut=    90.00 Ry     beta= 0.70
     Davidson diagonalization with overlap
     ethr =  8.40E-09,  avg # of iterations = 12.2

     negative rho (up, down):  3.231E-03 0.000E+00

     total cpu time spent up to now is      167.8 secs

     total energy              =   -3111.34795408 Ry
     estimated scf accuracy    <       0.00006364 Ry

     iteration # 21     ecut=    90.00 Ry     beta= 0.70
     Davidson diagonalization with overlap
     ethr =  8.40E-09,  avg # of iterations =  1.1

     negative rho (up, down):  3.232E-03 0.000E+00

     total cpu time spent up to now is      173.5 secs

     total energy              =   -3111.34795424 Ry
     estimated scf accuracy    <       0.00003338 Ry

     iteration # 22     ecut=    90.00 Ry     beta= 0.70
     Davidson diagonalization with overlap
     ethr =  8.40E-09,  avg # of iterations =  1.0

     negative rho (up, down):  3.234E-03 0.000E+00

     total cpu time spent up to now is      179.2 secs

     total energy              =   -3111.34795615 Ry
     estimated scf accuracy    <       0.00001299 Ry

     iteration # 23     ecut=    90.00 Ry     beta= 0.70
     Davidson diagonalization with overlap
     ethr =  7.38E-09,  avg # of iterations =  1.0

     negative rho (up, down):  3.232E-03 0.000E+00

     total cpu time spent up to now is      184.9 secs

     total energy              =   -3111.34795291 Ry
     estimated scf accuracy    <       0.00004665 Ry

     iteration # 24     ecut=    90.00 Ry     beta= 0.70
     Davidson diagonalization with overlap
     ethr =  7.38E-09,  avg # of iterations =  1.3

     negative rho (up, down):  3.232E-03 0.000E+00

     total cpu time spent up to now is      190.8 secs

     total energy              =   -3111.34795336 Ry
     estimated scf accuracy    <       0.00000523 Ry

     iteration # 25     ecut=    90.00 Ry     beta= 0.70
     Davidson diagonalization with overlap
     ethr =  2.97E-09,  avg # of iterations =  2.9

     negative rho (up, down):  3.232E-03 0.000E+00

     total cpu time spent up to now is      197.8 secs

     total energy              =   -3111.34795395 Ry
     estimated scf accuracy    <       0.00000022 Ry

     iteration # 26     ecut=    90.00 Ry     beta= 0.70
     Davidson diagonalization with overlap
     ethr =  1.23E-10,  avg # of iterations =  5.0

     negative rho (up, down):  3.232E-03 0.000E+00

     total cpu time spent up to now is      207.7 secs

     total energy              =   -3111.34795400 Ry
     estimated scf accuracy    <       0.00000050 Ry

     iteration # 27     ecut=    90.00 Ry     beta= 0.70
     Davidson diagonalization with overlap
     ethr =  1.23E-10,  avg # of iterations =  1.3

     negative rho (up, down):  3.232E-03 0.000E+00

     total cpu time spent up to now is      213.6 secs

     total energy              =   -3111.34795400 Ry
     estimated scf accuracy    <       0.00000009 Ry

     iteration # 28     ecut=    90.00 Ry     beta= 0.70
     Davidson diagonalization with overlap
     ethr =  5.23E-11,  avg # of iterations =  2.6

     negative rho (up, down):  3.232E-03 0.000E+00

     total cpu time spent up to now is      220.4 secs

     End of self-consistent calculation

          k = 0.0000 0.0000 0.0000 ( 15507 PWs)   bands (ev):

   -70.7859 -70.7633 -70.7274 -70.7046 -70.7003 -70.7003 -70.7003 -70.7003
   -40.8829 -40.8687 -40.8334 -40.8181 -37.1891 -37.1193 -37.0103 -36.8911
   -36.8911 -36.8710 -36.8710 -36.8572 -36.8572 -36.7981 -36.7867 -36.7458
   -36.7458 -36.7426 -36.7426 -36.6447 -36.6423 -36.6423 -36.6412 -36.6412
   -36.6325 -36.6325 -36.6193 -36.6193 -17.1750 -17.1750 -17.1610 -17.1610
   -17.1597 -17.1580 -17.0191 -17.0161 -17.0017 -17.0017 -16.9871 -16.9871
     8.6184  10.6485  11.4222  12.0194  12.5097  12.6101  12.7692  12.7692
    12.9894  12.9894  13.2002  13.2940  13.3865  13.3865  13.8275  13.8275
    13.9665  13.9665  14.2076  14.2944  14.2944  14.3198  14.3198  14.7773
    14.7773  14.9086  15.3899  15.3899  15.5090  15.5090  15.8278  15.9128
    15.9128  15.9152  15.9152  16.0617  16.0643  16.0643  16.0724  16.1337
    16.1607  16.1607  16.2314  16.2779  16.2779  16.7299  16.7299  16.7455
    16.9883  16.9883  17.2883  17.2883  17.4915  17.4915  17.5147  17.5150
    17.7865  17.7865

          k = 0.0000 0.0000 0.1030 ( 15471 PWs)   bands (ev):

   -70.7848 -70.7656 -70.7251 -70.7057 -70.7003 -70.7003 -70.7003 -70.7003
   -40.8822 -40.8701 -40.8320 -40.8189 -37.1862 -37.1279 -36.9969 -36.8906
   -36.8906 -36.8757 -36.8757 -36.8494 -36.8494 -36.8366 -36.7693 -36.7693
   -36.7511 -36.7196 -36.7196 -36.6494 -36.6494 -36.6494 -36.6373 -36.6373
   -36.6326 -36.6326 -36.6193 -36.6193 -17.1741 -17.1741 -17.1620 -17.1620
   -17.1593 -17.1579 -17.0191 -17.0165 -17.0007 -17.0007 -16.9880 -16.9880
     8.6952  10.2985  11.7134  12.0200  12.4088  12.7825  12.7825  12.7999
    12.9716  12.9716  13.0480  13.3959  13.4131  13.4131  13.8046  13.8046
    13.9490  13.9490  14.1836  14.1836  14.2746  14.4637  14.4637  14.8331
    14.8331  14.9433  15.3162  15.3162  15.4207  15.4207  15.7043  15.8487
    15.9289  15.9289  16.0210  16.0210  16.0561  16.0561  16.0765  16.1296
    16.1653  16.1653  16.2176  16.2176  16.3679  16.7982  16.7982  16.9626
    16.9789  16.9789  17.2804  17.2804  17.4939  17.4939  17.5147  17.5150
    17.7700  17.7700

          k = 0.0000 0.0000 0.2061 ( 15471 PWs)   bands (ev):

   -70.7816 -70.7709 -70.7197 -70.7090 -70.7003 -70.7003 -70.7003 -70.7003
   -40.8801 -40.8733 -40.8286 -40.8212 -37.1774 -37.1457 -36.9653 -36.8890
   -36.8890 -36.8817 -36.8817 -36.8814 -36.8343 -36.8343 -36.7933 -36.7933
   -36.7151 -36.6968 -36.6968 -36.6631 -36.6610 -36.6610 -36.6348 -36.6348
   -36.6329 -36.6329 -36.6193 -36.6193 -17.1717 -17.1717 -17.1647 -17.1647
   -17.1585 -17.1577 -17.0191 -17.0176 -16.9978 -16.9978 -16.9906 -16.9906
     8.9218   9.7629  11.9829  12.0218  12.4590  12.8193  12.8193  12.8593
    12.9270  12.9270  13.0620  13.4130  13.4860  13.4860  13.7129  13.7129
    13.9592  13.9592  14.0867  14.0867  14.5001  14.6546  14.6546  14.9419
    14.9419  15.0286  15.1529  15.1529  15.2786  15.2786  15.4662  15.4911
    15.9611  15.9611  16.0263  16.0263  16.0822  16.0822  16.0876  16.1182
    16.1207  16.1207  16.3276  16.3276  16.6107  16.8009  16.8009  17.0147
    17.0147  17.2424  17.2424  17.3940  17.5148  17.5443  17.5443  17.5629
    17.7191  17.7191

          k = 0.0000 0.0000-0.3091 ( 15500 PWs)   bands (ev):

   -70.7767 -70.7767 -70.7139 -70.7139 -70.7003 -70.7003 -70.7003 -70.7003
   -40.8769 -40.8769 -40.8247 -40.8247 -37.1635 -37.1635 -36.9253 -36.9253
   -36.8861 -36.8861 -36.8861 -36.8861 -36.8153 -36.8153 -36.8153 -36.8153
   -36.6853 -36.6853 -36.6769 -36.6769 -36.6769 -36.6769 -36.6336 -36.6336
   -36.6336 -36.6336 -36.6193 -36.6193 -17.1682 -17.1682 -17.1682 -17.1682
   -17.1579 -17.1579 -17.0186 -17.0186 -16.9941 -16.9941 -16.9941 -16.9941
     9.2858   9.2858  12.0234  12.0234  12.6656  12.6656  12.8715  12.8715
    12.8715  12.8715  13.2886  13.2886  13.5922  13.5922  13.5922  13.5922
    14.0107  14.0107  14.0107  14.0107  14.8640  14.8640  14.8640  14.8640
    14.8726  14.8726  15.1490  15.1490  15.1490  15.1490  15.3167  15.3167
    16.0016  16.0016  16.0016  16.0016  16.0687  16.0687  16.0687  16.0687
    16.1029  16.1029  16.5885  16.5885  16.5885  16.5885  16.9840  16.9840
    17.1497  17.1497  17.1497  17.1497  17.5148  17.5148  17.6366  17.6366
    17.6366  17.6366

          k = 0.0000 0.1925 0.0000 ( 15506 PWs)   bands (ev):

   -70.7824 -70.7596 -70.7274 -70.7130 -70.7039 -70.7003 -70.7003 -70.6955
   -40.8802 -40.8658 -40.8365 -40.8211 -37.1675 -37.0980 -37.0077 -36.8900
   -36.8774 -36.8765 -36.8612 -36.8572 -36.8558 -36.7914 -36.7867 -36.7530
   -36.7458 -36.7435 -36.7428 -36.6590 -36.6537 -36.6499 -36.6455 -36.6423
   -36.6408 -36.6396 -36.6262 -36.6249 -17.1894 -17.1794 -17.1649 -17.1618
   -17.1567 -17.1370 -17.0354 -17.0119 -17.0070 -16.9976 -16.9829 -16.9794
     8.8844  10.8514  11.6004  12.1310  12.5497  12.6046  12.7147  12.8113
    12.9010  13.1536  13.1576  13.3972  13.4409  13.4682  13.7824  13.8807
    13.9669  14.0700  14.2447  14.2833  14.2952  14.3211  14.3667  14.6312
    14.6988  14.7116  15.0244  15.2180  15.2244  15.2796  15.4974  15.5680
    15.7640  15.8576  15.8804  15.9583  16.0039  16.0691  16.1154  16.1933
    16.2188  16.3009  16.3282  16.3567  16.4920  16.6278  16.8022  16.8957
    16.9056  17.0136  17.2900  17.3017  17.3350  17.5246  17.5437  17.5482
    17.5777  17.9180

          k = 0.0000 0.1925 0.1030 ( 15503 PWs)   bands (ev):

   -70.7813 -70.7620 -70.7253 -70.7134 -70.7036 -70.7003 -70.7003 -70.6962
   -40.8795 -40.8672 -40.8350 -40.8218 -37.1647 -37.1072 -36.9943 -36.8896
   -36.8824 -36.8770 -36.8645 -36.8532 -36.8454 -36.8289 -36.7735 -36.7687
   -36.7507 -36.7241 -36.7203 -36.6606 -36.6548 -36.6537 -36.6470 -36.6424
   -36.6418 -36.6408 -36.6260 -36.6249 -17.1879 -17.1785 -17.1659 -17.1652
   -17.1538 -17.1380 -17.0344 -17.0160 -17.0026 -16.9965 -16.9838 -16.9807
     8.9593  10.5157  11.8764  12.1320  12.4550  12.6576  12.7816  12.8304
    12.9370  13.1228  13.1319  13.3684  13.4718  13.5015  13.7771  13.8660
    13.9378  14.0362  14.1368  14.2182  14.3254  14.4438  14.5020  14.6916
    14.7331  14.7606  15.0256  15.1659  15.1833  15.2544  15.5072  15.5563
    15.6799  15.8076  15.8585  15.9279  16.0077  16.0377  16.1202  16.1698
    16.2045  16.2910  16.3061  16.3997  16.4996  16.6850  16.7883  16.9073
    16.9607  17.0954  17.2841  17.3229  17.3348  17.4699  17.5460  17.5723
    17.6252  17.8937

          k = 0.0000 0.1925 0.2061 ( 15491 PWs)   bands (ev):

   -70.7781 -70.7674 -70.7210 -70.7146 -70.7025 -70.7003 -70.7003 -70.6982
   -40.8774 -40.8705 -40.8315 -40.8241 -37.1563 -37.1253 -36.9638 -36.8982
   -36.8858 -36.8758 -36.8700 -36.8635 -36.8379 -36.8309 -36.7970 -36.7919
   -36.7178 -36.7040 -36.6980 -36.6661 -36.6637 -36.6618 -36.6490 -36.6470
   -36.6412 -36.6409 -36.6256 -36.6250 -17.1837 -17.1760 -17.1712 -17.1687
   -17.1492 -17.1406 -17.0315 -17.0217 -16.9963 -16.9937 -16.9864 -16.9844
     9.1802   9.9980  12.1192  12.1395  12.4833  12.6845  12.8042  12.8841
    13.0267  13.0496  13.1144  13.3685  13.5197  13.5520  13.7019  13.7872
    13.9483  14.0180  14.0592  14.1258  14.4504  14.6550  14.6749  14.7863
    14.8352  14.8409  14.9913  15.0780  15.0962  15.1740  15.3500  15.4356
    15.6722  15.8071  15.8572  15.8943  15.9206  16.0241  16.0558  16.0964
    16.2001  16.2953  16.3284  16.5052  16.5586  16.6872  16.7355  16.8216
    17.0753  17.2460  17.2655  17.3440  17.3934  17.5128  17.5393  17.6171
    17.6234  17.8242

          k = 0.0000 0.1925-0.3091 ( 15474 PWs)   bands (ev):

   -70.7732 -70.7732 -70.7171 -70.7171 -70.7006 -70.7006 -70.7003 -70.7003
   -40.8743 -40.8743 -40.8275 -40.8275 -37.1427 -37.1427 -36.9279 -36.9279
   -36.8801 -36.8801 -36.8736 -36.8736 -36.8189 -36.8189 -36.8129 -36.8129
   -36.6966 -36.6966 -36.6788 -36.6788 -36.6715 -36.6715 -36.6490 -36.6490
   -36.6410 -36.6410 -36.6252 -36.6252 -17.1778 -17.1777 -17.1724 -17.1724
   -17.1446 -17.1446 -17.0271 -17.0271 -16.9900 -16.9900 -16.9899 -16.9899
     9.5347   9.5347  12.1429  12.1429  12.6266  12.6266  12.8931  12.8931
    12.9626  12.9626  13.2874  13.2874  13.5877  13.5877  13.6645  13.6645
    14.0013  14.0013  14.0568  14.0568  14.6728  14.6728  14.8196  14.8196
    14.8848  14.8848  14.9558  14.9558  15.0955  15.0955  15.2749  15.2749
    15.7865  15.7865  15.8463  15.8463  15.9257  15.9257  16.0546  16.0546
    16.2488  16.2488  16.4876  16.4876  16.6502  16.6502  16.6866  16.6866
    17.1777  17.1777  17.3496  17.3496  17.4721  17.4721  17.5387  17.5387
    17.7230  17.7230

          k = 0.0000 0.3849 0.0000 ( 15504 PWs)   bands (ev):

   -70.7737 -70.7504 -70.7274 -70.7252 -70.7132 -70.7003 -70.7003 -70.6920
   -40.8730 -40.8582 -40.8443 -40.8287 -37.1155 -37.0469 -37.0024 -36.9056
   -36.8750 -36.8674 -36.8574 -36.8432 -36.8151 -36.7867 -36.7819 -36.7633
   -36.7469 -36.7458 -36.7437 -36.7147 -36.6867 -36.6861 -36.6726 -36.6523
   -36.6422 -36.6311 -36.6305 -36.6269 -17.1981 -17.1877 -17.1723 -17.1708
   -17.1466 -17.1093 -17.0609 -17.0187 -17.0025 -16.9898 -16.9750 -16.9735
     9.6328  11.3557  12.0196  12.0475  12.4032  12.5954  12.6511  12.9364
    13.0031  13.0740  13.5556  13.5708  13.5918  13.6374  13.7329  13.9220
    14.0025  14.1422  14.2445  14.2787  14.3267  14.3692  14.4111  14.4432
    14.4938  14.5410  14.5456  14.7694  14.7847  14.8851  14.9708  15.0734
    15.0983  15.3994  15.7136  15.9950  16.0846  16.1410  16.1497  16.1942
    16.2043  16.3324  16.4118  16.6272  16.6407  16.7410  16.7456  16.8449
    16.8556  17.0225  17.0268  17.3389  17.3933  17.6191  17.6759  17.6920
    17.7361  18.2605

          k = 0.0000 0.3849 0.1030 ( 15519 PWs)   bands (ev):

   -70.7726 -70.7529 -70.7268 -70.7252 -70.7113 -70.7003 -70.7003 -70.6931
   -40.8724 -40.8601 -40.8423 -40.8294 -37.1130 -37.0585 -36.9879 -36.9085
   -36.8775 -36.8593 -36.8559 -36.8437 -36.8141 -36.8136 -36.7832 -36.7655
   -36.7542 -36.7353 -36.7243 -36.7115 -36.6873 -36.6828 -36.6717 -36.6554
   -36.6454 -36.6346 -36.6297 -36.6270 -17.1963 -17.1867 -17.1734 -17.1723
   -17.1453 -17.1134 -17.0569 -17.0216 -16.9996 -16.9887 -16.9759 -16.9751
     9.7015  11.0878  11.9793  12.3218  12.3569  12.6121  12.6796  12.9400
    12.9656  13.1416  13.4637  13.4893  13.6577  13.7150  13.7400  13.9083
    13.9911  14.0985  14.2073  14.2741  14.2974  14.3029  14.3894  14.4844
    14.5476  14.5951  14.6572  14.7715  14.7962  14.9438  14.9709  15.0517
    15.1208  15.4182  15.7136  15.8942  16.0200  16.0609  16.1021  16.1561
    16.2143  16.3778  16.3913  16.6341  16.6489  16.7109  16.7318  16.8468
    16.8792  17.0680  17.1730  17.2896  17.3715  17.4879  17.6484  17.7187
    17.9668  18.1937

          k = 0.0000 0.3849 0.2061 ( 15519 PWs)   bands (ev):

   -70.7693 -70.7584 -70.7260 -70.7253 -70.7066 -70.7003 -70.7003 -70.6963
   -40.8705 -40.8638 -40.8384 -40.8314 -37.1056 -37.0772 -36.9617 -36.9182
   -36.8753 -36.8524 -36.8467 -36.8454 -36.8408 -36.8085 -36.8046 -36.7841
   -36.7380 -36.7284 -36.7068 -36.6977 -36.6895 -36.6728 -36.6686 -36.6646
   -36.6531 -36.6444 -36.6285 -36.6272 -17.1911 -17.1840 -17.1770 -17.1764
   -17.1406 -17.1226 -17.0478 -17.0286 -16.9932 -16.9859 -16.9795 -16.9785
     9.9034  10.6393  12.0322  12.2469  12.5910  12.6562  12.7452  12.8921
    13.0493  13.1970  13.3235  13.3710  13.7428  13.7521  13.8046  13.8943
    13.9408  14.0406  14.1782  14.1930  14.2409  14.3205  14.4503  14.5270
    14.5806  14.6207  14.7195  14.8450  14.8537  14.9653  14.9969  15.0491
    15.2568  15.4999  15.6962  15.7645  15.8562  15.9321  15.9507  16.0069
    16.2576  16.3520  16.4411  16.6253  16.6825  16.7017  16.7097  16.8478
    16.9473  17.1321  17.1700  17.3080  17.3802  17.5175  17.6423  17.8156
    17.9866  18.0881

          k = 0.0000 0.3849-0.3091 ( 15504 PWs)   bands (ev):

   -70.7644 -70.7644 -70.7255 -70.7255 -70.7010 -70.7010 -70.7003 -70.7003
   -40.8676 -40.8676 -40.8345 -40.8345 -37.0935 -37.0935 -36.9364 -36.9364
   -36.8647 -36.8647 -36.8484 -36.8484 -36.8255 -36.8255 -36.7988 -36.7988
   -36.7301 -36.7301 -36.6952 -36.6952 -36.6794 -36.6794 -36.6620 -36.6620
   -36.6584 -36.6584 -36.6277 -36.6277 -17.1840 -17.1840 -17.1803 -17.1803
   -17.1325 -17.1325 -17.0377 -17.0377 -16.9860 -16.9860 -16.9821 -16.9821
    10.2249  10.2249  12.1278  12.1278  12.6763  12.6763  12.8352  12.8352
    13.1755  13.1755  13.2659  13.2659  13.7749  13.7749  13.8440  13.8440
    13.9794  13.9794  14.1943  14.1943  14.2492  14.2492  14.5090  14.5090
    14.6023  14.6023  14.7877  14.7877  14.9533  14.9533  15.0265  15.0265
    15.5127  15.5127  15.6593  15.6593  15.7964  15.7964  15.8971  15.8971
    16.3162  16.3162  16.5426  16.5426  16.6602  16.6602  16.7977  16.7977
    17.0509  17.0509  17.2134  17.2134  17.5387  17.5387  17.7516  17.7516
    17.9566  17.9566

          k = 0.0000-0.5774 0.0000 ( 15546 PWs)   bands (ev):

   -70.7677 -70.7433 -70.7323 -70.7274 -70.7203 -70.7003 -70.7003 -70.6910
   -40.8672 -40.8521 -40.8504 -40.8348 -37.0815 -37.0109 -36.9997 -36.9318
   -36.8699 -36.8617 -36.8574 -36.8190 -36.7865 -36.7822 -36.7771 -36.7633
   -36.7617 -36.7458 -36.7455 -36.7442 -36.7243 -36.7004 -36.6951 -36.6562
   -36.6422 -36.6312 -36.6274 -36.6272 -17.1993 -17.1916 -17.1764 -17.1758
   -17.1402 -17.0964 -17.0736 -17.0257 -16.9969 -16.9862 -16.9729 -16.9713
    10.4822  11.0626  11.9980  12.1844  12.3534  12.6476  12.8052  12.8786
    13.0162  13.1967  13.6214  13.6460  13.7055  13.9001  13.9585  13.9648
    13.9854  14.0209  14.1168  14.2846  14.3320  14.3886  14.3922  14.4049
    14.4445  14.4826  14.5001  14.5411  14.5439  14.5590  14.6856  14.7426
    14.7741  15.0591  15.7526  16.0521  16.0690  16.1203  16.1490  16.2211
    16.2502  16.2919  16.3049  16.5643  16.6439  16.8307  16.9059  16.9580
    17.0321  17.0601  17.1284  17.1491  17.4130  17.5384  17.5627  17.6733
    17.8528  18.2046

          k = 0.0000-0.5774 0.1030 ( 15534 PWs)   bands (ev):

   -70.7665 -70.7458 -70.7323 -70.7296 -70.7156 -70.7003 -70.7003 -70.6922
   -40.8667 -40.8556 -40.8469 -40.8354 -37.0793 -37.0278 -36.9815 -36.9328
   -36.8712 -36.8551 -36.8550 -36.8217 -36.8045 -36.7887 -36.7767 -36.7631
   -36.7618 -36.7574 -36.7352 -36.7287 -36.7244 -36.6927 -36.6910 -36.6594
   -36.6458 -36.6309 -36.6303 -36.6273 -17.1974 -17.1906 -17.1769 -17.1769
   -17.1399 -17.1046 -17.0655 -17.0271 -16.9955 -16.9851 -16.9745 -16.9722
    10.5385  11.1046  11.7543  12.0850  12.5543  12.6627  12.7926  12.8783
    13.0513  13.2033  13.5853  13.6426  13.6982  13.9355  13.9559  13.9781
    14.0037  14.0037  14.0834  14.2112  14.2863  14.3656  14.3996  14.4133
    14.4251  14.4431  14.4920  14.5184  14.6505  14.6704  14.6823  14.7606
    14.8802  15.1270  15.7532  15.9756  16.0026  16.0919  16.1153  16.1400
    16.2078  16.2109  16.4867  16.6372  16.6874  16.7124  16.8036  16.8626
    16.9914  17.1633  17.1949  17.2787  17.3391  17.5004  17.7094  17.7421
    17.8449  18.1936

          k = 0.0000-0.5774 0.2061 ( 15496 PWs)   bands (ev):

   -70.7631 -70.7516 -70.7322 -70.7313 -70.7082 -70.7003 -70.7003 -70.6957
   -40.8652 -40.8594 -40.8429 -40.8370 -37.0726 -37.0464 -36.9604 -36.9364
   -36.8675 -36.8485 -36.8417 -36.8314 -36.8291 -36.8060 -36.7752 -36.7666
   -36.7623 -36.7618 -36.7290 -36.7250 -36.7051 -36.6803 -36.6755 -36.6690
   -36.6547 -36.6412 -36.6289 -36.6275 -17.1922 -17.1879 -17.1800 -17.1797
   -17.1371 -17.1178 -17.0525 -17.0319 -16.9913 -16.9822 -16.9789 -16.9748
    10.7020  11.1583  11.4815  11.8454  12.6639  12.7549  12.8062  12.9009
    13.1523  13.2512  13.4798  13.4863  13.7827  13.9340  13.9341  13.9527
    13.9758  14.0224  14.1265  14.1584  14.2936  14.3784  14.3860  14.3877
    14.4264  14.4525  14.4556  14.5035  14.6435  14.6636  14.8023  14.8050
    15.1681  15.3323  15.7296  15.7885  15.8811  15.9385  15.9902  16.0535
    16.2082  16.2303  16.5823  16.5871  16.7093  16.7494  16.8143  16.8182
    16.8353  17.1800  17.2706  17.3396  17.4745  17.4933  17.7827  17.8895
    17.8914  18.0874

          k = 0.0000-0.5774-0.3091 ( 15528 PWs)   bands (ev):

   -70.7579 -70.7579 -70.7319 -70.7319 -70.7012 -70.7012 -70.7003 -70.7003
   -40.8627 -40.8627 -40.8395 -40.8395 -37.0615 -37.0615 -36.9449 -36.9449
   -36.8542 -36.8542 -36.8391 -36.8391 -36.8247 -36.8247 -36.7722 -36.7722
   -36.7619 -36.7619 -36.7262 -36.7262 -36.6845 -36.6845 -36.6669 -36.6669
   -36.6568 -36.6568 -36.6280 -36.6280 -17.1855 -17.1855 -17.1840 -17.1840
   -17.1295 -17.1295 -17.0407 -17.0407 -16.9851 -16.9851 -16.9785 -16.9785
    10.9495  10.9495  11.5858  11.5858  12.7064  12.7064  12.9060  12.9060
    13.3061  13.3061  13.3510  13.3510  13.8714  13.8714  13.9310  13.9310
    13.9578  13.9578  14.2036  14.2036  14.3530  14.3530  14.3774  14.3774
    14.4077  14.4077  14.4830  14.4830  14.6462  14.6462  14.8363  14.8363
    15.5014  15.5014  15.5842  15.5842  15.8345  15.8345  15.9642  15.9642
    16.2293  16.2293  16.6289  16.6289  16.6610  16.6610  16.8191  16.8191
    16.9921  16.9921  17.3379  17.3379  17.6571  17.6571  17.6807  17.6807
    18.0467  18.0467

          k = 0.1667 0.2887 0.0000 ( 15488 PWs)   bands (ev):

   -70.7762 -70.7531 -70.7274 -70.7220 -70.7105 -70.7003 -70.7003 -70.6927
   -40.8751 -40.8604 -40.8420 -40.8265 -37.1294 -37.0606 -37.0038 -36.8948
   -36.8891 -36.8654 -36.8582 -36.8496 -36.8257 -36.7867 -36.7824 -36.7616
   -36.7469 -36.7445 -36.7443 -36.7042 -36.6835 -36.6548 -36.6493 -36.6490
   -36.6435 -36.6402 -36.6383 -36.6331 -17.1954 -17.1882 -17.1724 -17.1681
   -17.1468 -17.1141 -17.0558 -17.0178 -17.0051 -16.9902 -16.9757 -16.9751
     9.3931  11.2225  11.9123  12.2308  12.5143  12.5405  12.6045  12.8674
    12.9997  13.0181  13.3720  13.5199  13.5812  13.6504  13.7148  13.9109
    13.9493  14.1615  14.2140  14.2935  14.3383  14.4145  14.4375  14.4425
    14.5258  14.5863  14.6307  14.7864  14.9227  15.0306  15.1393  15.2912
    15.3380  15.4899  15.7592  15.8335  15.9365  16.0818  16.1790  16.2309
    16.2353  16.3220  16.5259  16.5480  16.5917  16.6576  16.7663  16.9193
    16.9455  17.0944  17.2231  17.2833  17.2961  17.3084  17.7400  17.7866
    17.7943  17.8695

          k = 0.1667 0.2887 0.1030 ( 15495 PWs)   bands (ev):

   -70.7750 -70.7556 -70.7262 -70.7221 -70.7092 -70.7003 -70.7003 -70.6937
   -40.8745 -40.8621 -40.8403 -40.8272 -37.1268 -37.0714 -36.9898 -36.9000
   -36.8877 -36.8601 -36.8573 -36.8489 -36.8236 -36.8180 -36.7787 -36.7696
   -36.7513 -36.7301 -36.7242 -36.7030 -36.6813 -36.6568 -36.6534 -36.6477
   -36.6450 -36.6408 -36.6383 -36.6355 -17.1936 -17.1873 -17.1736 -17.1698
   -17.1453 -17.1172 -17.0528 -17.0212 -17.0017 -16.9891 -16.9772 -16.9761
     9.4640  10.9181  12.1521  12.2324  12.5126  12.5268  12.5836  12.9798
    12.9938  13.0331  13.3237  13.4671  13.6126  13.6557  13.7274  13.9188
    13.9440  14.0890  14.1806  14.2412  14.3500  14.3781  14.4732  14.4824
    14.5884  14.6242  14.7296  14.8445  14.8994  15.0158  15.1732  15.2754
    15.3122  15.5000  15.7389  15.7733  15.8987  16.0422  16.1507  16.1828
    16.1979  16.3116  16.4165  16.6152  16.6305  16.7092  16.7383  16.9120
    16.9818  17.1464  17.2353  17.2845  17.3283  17.3414  17.6141  17.7598
    17.8284  17.9301

          k = 0.1667 0.2887 0.2061 ( 15507 PWs)   bands (ev):

   -70.7718 -70.7610 -70.7243 -70.7224 -70.7056 -70.7003 -70.7003 -70.6966
   -40.8725 -40.8657 -40.8365 -40.8293 -37.1191 -37.0899 -36.9622 -36.9128
   -36.8828 -36.8557 -36.8554 -36.8476 -36.8409 -36.8168 -36.8017 -36.7884
   -36.7306 -36.7189 -36.7034 -36.6958 -36.6742 -36.6637 -36.6617 -36.6498
   -36.6471 -36.6448 -36.6381 -36.6377 -17.1887 -17.1846 -17.1765 -17.1747
   -17.1406 -17.1246 -17.0455 -17.0281 -16.9951 -16.9863 -16.9815 -16.9787
     9.6728  10.4397  12.2442  12.3360  12.4751  12.5515  12.7077  12.9686
    13.0629  13.1425  13.2286  13.3680  13.6558  13.6710  13.7328  13.8983
    13.9713  14.0193  14.1284  14.1466  14.3263  14.4178  14.5568  14.5775
    14.6551  14.6587  14.8654  14.8687  14.9494  14.9900  15.1426  15.2440
    15.3553  15.5388  15.6614  15.7634  15.8370  15.9146  15.9711  16.0174
    16.1893  16.2964  16.4909  16.6074  16.6650  16.6861  16.7285  16.8500
    17.0947  17.2282  17.2649  17.3175  17.3731  17.4425  17.5401  17.6773
    17.7853  17.9396

          k = 0.1667 0.2887-0.3091 ( 15492 PWs)   bands (ev):

   -70.7669 -70.7669 -70.7231 -70.7231 -70.7009 -70.7009 -70.7003 -70.7003
   -40.8695 -40.8695 -40.8325 -40.8325 -37.1066 -37.1066 -36.9340 -36.9340
   -36.8718 -36.8718 -36.8535 -36.8535 -36.8232 -36.8232 -36.8048 -36.8048
   -36.7201 -36.7201 -36.6889 -36.6889 -36.6705 -36.6705 -36.6616 -36.6616
   -36.6465 -36.6465 -36.6380 -36.6380 -17.1824 -17.1824 -17.1800 -17.1800
   -17.1331 -17.1331 -17.0366 -17.0366 -16.9880 -16.9880 -16.9823 -16.9823
    10.0065  10.0065  12.2809  12.2809  12.5490  12.5490  12.8658  12.8658
    13.1301  13.1301  13.2732  13.2732  13.6674  13.6674  13.7949  13.7949
    14.0114  14.0114  14.1175  14.1175  14.3738  14.3738  14.6176  14.6176
    14.6673  14.6673  14.9167  14.9167  14.9566  14.9566  15.1537  15.1537
    15.5093  15.5093  15.7515  15.7515  15.7708  15.7708  15.8894  15.8894
    16.2483  16.2483  16.5690  16.5690  16.6672  16.6672  16.7623  16.7623
    17.2106  17.2106  17.2833  17.2833  17.4694  17.4694  17.5914  17.5914
    17.8129  17.8129

          k = 0.1667 0.4811 0.0000 ( 15511 PWs)   bands (ev):

   -70.7677 -70.7433 -70.7323 -70.7274 -70.7203 -70.7003 -70.7003 -70.6910
   -40.8672 -40.8520 -40.8505 -40.8349 -37.0768 -37.0076 -36.9997 -36.9342
   -36.8892 -36.8684 -36.8600 -36.8100 -36.7868 -36.7836 -36.7764 -36.7648
   -36.7627 -36.7500 -36.7484 -36.7383 -36.6981 -36.6927 -36.6792 -36.6529
   -36.6454 -36.6450 -36.6442 -36.6277 -17.1989 -17.1934 -17.1802 -17.1773
   -17.1316 -17.0895 -17.0789 -17.0337 -16.9957 -16.9828 -16.9773 -16.9670
    10.2875  11.5129  11.9168  12.3091  12.3252  12.6055  12.6538  12.8376
    12.8811  13.1332  13.6524  13.7027  13.7649  13.8274  13.8418  13.9092
    13.9117  14.0362  14.1880  14.2046  14.2354  14.3132  14.4071  14.4176
    14.4867  14.5015  14.5286  14.5495  14.6181  14.7082  14.8344  14.8528
    14.9854  15.1275  15.6568  15.7835  15.9416  15.9536  16.0823  16.1503
    16.3915  16.4243  16.4567  16.6031  16.6783  16.7229  16.8243  16.9514
    17.1277  17.1283  17.2062  17.2238  17.3227  17.4610  17.7244  17.7903
    17.9210  18.0277

          k = 0.1667 0.4811 0.1030 ( 15506 PWs)   bands (ev):

   -70.7665 -70.7458 -70.7323 -70.7296 -70.7156 -70.7003 -70.7003 -70.6922
   -40.8667 -40.8555 -40.8469 -40.8354 -37.0746 -37.0248 -36.9817 -36.9357
   -36.8871 -36.8638 -36.8575 -36.8134 -36.8040 -36.7892 -36.7801 -36.7729
   -36.7581 -36.7531 -36.7318 -36.7277 -36.6941 -36.6905 -36.6778 -36.6563
   -36.6487 -36.6451 -36.6431 -36.6309 -17.1975 -17.1919 -17.1815 -17.1772
   -17.1319 -17.1005 -17.0681 -17.0342 -16.9951 -16.9817 -16.9787 -16.9680
    10.3488  11.4682  11.7424  12.2513  12.5430  12.5553  12.6679  12.8203
    12.9607  13.1604  13.5949  13.6521  13.7848  13.8107  13.8871  13.9018
    13.9561  14.0412  14.0899  14.1548  14.2508  14.2689  14.3638  14.4413
    14.4544  14.5110  14.5393  14.5871  14.6476  14.7937  14.8534  14.9197
    15.0254  15.1649  15.6516  15.7510  15.8446  15.9780  16.0679  16.1137
    16.2624  16.3415  16.5654  16.6125  16.6888  16.6988  16.8394  16.9744
    17.0837  17.1397  17.1966  17.2759  17.3340  17.4477  17.6586  17.9029
    17.9565  18.0043

          k = 0.1667 0.4811 0.2061 ( 15510 PWs)   bands (ev):

   -70.7631 -70.7516 -70.7322 -70.7313 -70.7082 -70.7003 -70.7003 -70.6957
   -40.8651 -40.8594 -40.8430 -40.8370 -37.0682 -37.0429 -36.9627 -36.9403
   -36.8783 -36.8533 -36.8509 -36.8334 -36.8200 -36.8071 -36.7806 -36.7773
   -36.7563 -36.7547 -36.7145 -36.7109 -36.6909 -36.6780 -36.6723 -36.6655
   -36.6559 -36.6468 -36.6426 -36.6387 -17.1940 -17.1879 -17.1848 -17.1784
   -17.1308 -17.1141 -17.0548 -17.0369 -16.9926 -16.9827 -16.9786 -16.9708
    10.5278  11.1625  11.7645  12.1155  12.5337  12.6303  12.7750  12.8292
    13.1159  13.2304  13.4695  13.5173  13.8066  13.8410  13.8890  13.9162
    13.9632  14.0309  14.0516  14.1295  14.2158  14.2796  14.3369  14.3710
    14.4278  14.4822  14.5494  14.6039  14.7224  14.8409  14.9591  14.9915
    15.2112  15.3181  15.6263  15.6513  15.7147  15.8660  16.0132  16.0754
    16.1432  16.2327  16.5902  16.6398  16.6710  16.7464  16.8637  16.9804
    17.0602  17.1389  17.2406  17.2925  17.3303  17.4774  17.6757  17.8312
    17.9742  18.1278

          k = 0.1667 0.4811-0.3091 ( 15512 PWs)   bands (ev):

   -70.7579 -70.7579 -70.7319 -70.7319 -70.7012 -70.7012 -70.7003 -70.7003
   -40.8627 -40.8627 -40.8396 -40.8396 -37.0575 -37.0575 -36.9488 -36.9488
   -36.8601 -36.8601 -36.8451 -36.8451 -36.8220 -36.8220 -36.7796 -36.7796
   -36.7555 -36.7555 -36.7066 -36.7066 -36.6795 -36.6795 -36.6668 -36.6668
   -36.6574 -36.6574 -36.6420 -36.6420 -17.1895 -17.1895 -17.1823 -17.1823
   -17.1249 -17.1249 -17.0439 -17.0439 -16.9879 -16.9879 -16.9746 -16.9746
    10.8099  10.8099  11.9245  11.9245  12.5868  12.5868  12.8301  12.8301
    13.2943  13.2943  13.3697  13.3697  13.8374  13.8374  13.8817  13.8817
    14.0056  14.0056  14.0871  14.0871  14.2460  14.2460  14.3611  14.3611
    14.4266  14.4266  14.5660  14.5660  14.7976  14.7976  15.0281  15.0281
    15.4256  15.4256  15.5729  15.5729  15.6835  15.6835  15.9970  15.9970
    16.1697  16.1697  16.6250  16.6250  16.7099  16.7099  16.9223  16.9223
    17.0977  17.0977  17.2718  17.2718  17.4328  17.4328  17.7501  17.7501
    18.0030  18.0031

          k = 0.3333 0.5774 0.0000 ( 15498 PWs)   bands (ev):

   -70.7636 -70.7368 -70.7368 -70.7274 -70.7268 -70.7003 -70.7003 -70.6905
   -40.8589 -40.8589 -40.8434 -40.8434 -37.0416 -36.9982 -36.9676 -36.9676
   -36.9203 -36.8654 -36.8654 -36.7880 -36.7880 -36.7775 -36.7775 -36.7695
   -36.7609 -36.7609 -36.7561 -36.6949 -36.6949 -36.6933 -36.6796 -36.6796
   -36.6723 -36.6488 -36.6488 -36.6264 -17.2030 -17.1867 -17.1867 -17.1855
   -17.1055 -17.1055 -17.0606 -17.0606 -16.9858 -16.9858 -16.9783 -16.9625
    10.8830  11.6234  11.6234  12.3711  12.4073  12.6317  12.6317  12.7354
    12.7354  13.0880  13.7838  13.7838  13.8585  13.8585  13.9726  13.9726
    13.9749  13.9783  14.0173  14.0173  14.1083  14.2115  14.2574  14.2574
    14.5172  14.5172  14.5295  14.5856  14.5856  14.8867  14.8867  14.9440
    14.9792  15.0585  15.6622  15.7053  15.7053  15.7464  15.7464  16.0388
    16.5551  16.5551  16.5748  16.5748  16.7903  16.7903  16.9456  16.9456
    16.9709  17.1399  17.3141  17.3854  17.3854  17.4012  17.7713  17.7713
    17.8202  17.9671

          k = 0.3333 0.5774 0.1030 ( 15495 PWs)   bands (ev):

   -70.7623 -70.7368 -70.7368 -70.7366 -70.7176 -70.7003 -70.7003 -70.6918
   -40.8589 -40.8589 -40.8434 -40.8434 -37.0398 -37.0036 -36.9678 -36.9678
   -36.9111 -36.8623 -36.8623 -36.7956 -36.7931 -36.7931 -36.7852 -36.7852
   -36.7513 -36.7513 -36.7336 -36.6939 -36.6923 -36.6923 -36.6792 -36.6792
   -36.6705 -36.6513 -36.6513 -36.6296 -17.2019 -17.1867 -17.1856 -17.1856
   -17.1093 -17.1093 -17.0572 -17.0572 -16.9866 -16.9866 -16.9771 -16.9635
    10.9336  11.6643  11.6643  11.9953  12.5137  12.5137  12.7854  12.8058
    12.8058  13.1220  13.7473  13.7473  13.8406  13.9087  13.9087  13.9268
    13.9613  13.9613  14.0201  14.0201  14.1476  14.1885  14.1946  14.1946
    14.4652  14.4652  14.5645  14.7227  14.7227  14.8827  14.8926  14.8926
    15.0751  15.1417  15.6184  15.6184  15.6329  15.8302  15.8302  15.9793
    16.3967  16.3967  16.6325  16.6325  16.7995  16.7995  16.9615  16.9939
    16.9939  17.1690  17.2199  17.3746  17.3746  17.4109  17.7667  17.7667
    17.9615  17.9616

          k = 0.3333 0.5774 0.2061 ( 15513 PWs)   bands (ev):

   -70.7587 -70.7454 -70.7368 -70.7368 -70.7088 -70.7003 -70.7003 -70.6954
   -40.8590 -40.8590 -40.8433 -40.8433 -37.0345 -37.0148 -36.9681 -36.9681
   -36.8890 -36.8543 -36.8543 -36.8283 -36.8099 -36.8099 -36.7863 -36.7863
   -36.7422 -36.7422 -36.7126 -36.6959 -36.6865 -36.6865 -36.6768 -36.6768
   -36.6638 -36.6585 -36.6585 -36.6389 -17.1988 -17.1901 -17.1830 -17.1830
   -17.1160 -17.1160 -17.0512 -17.0512 -16.9885 -16.9885 -16.9741 -16.9662
    11.0822  11.6310  11.7698  11.7698  12.3347  12.3347  12.8647  12.8647
    13.1515  13.2196  13.6298  13.7137  13.7137  13.7760  13.9038  13.9038
    13.9383  13.9383  14.0792  14.0792  14.1487  14.1529  14.1593  14.1593
    14.4186  14.4186  14.6442  14.7516  14.7516  14.8119  15.0476  15.0476
    15.2242  15.3330  15.4993  15.4993  15.5536  15.8207  15.9106  15.9106
    16.2274  16.2274  16.6375  16.6375  16.8117  16.8117  16.9570  17.0750
    17.0750  17.0779  17.2504  17.3361  17.3361  17.4002  17.7765  17.7765
    17.9200  17.9200

          k = 0.3333 0.5774-0.3091 ( 15564 PWs)   bands (ev):

   -70.7529 -70.7529 -70.7368 -70.7368 -70.7012 -70.7012 -70.7003 -70.7003
   -40.8591 -40.8591 -40.8433 -40.8433 -37.0259 -37.0259 -36.9683 -36.9683
   -36.8603 -36.8603 -36.8481 -36.8481 -36.8196 -36.8196 -36.7864 -36.7864
   -36.7393 -36.7393 -36.7009 -36.7009 -36.6840 -36.6840 -36.6686 -36.6686
   -36.6684 -36.6684 -36.6519 -36.6519 -17.1945 -17.1945 -17.1816 -17.1816
   -17.1192 -17.1192 -17.0484 -17.0484 -16.9895 -16.9895 -16.9701 -16.9701
    11.3198  11.3198  11.8496  11.8496  12.2282  12.2282  12.8837  12.8837
    13.3426  13.3426  13.5602  13.5602  13.7005  13.7005  13.8822  13.8822
    13.9280  13.9280  14.1249  14.1249  14.1400  14.1400  14.1658  14.1658
    14.3908  14.3908  14.7291  14.7291  14.7317  14.7317  15.1914  15.1914
    15.3760  15.3760  15.3978  15.3978  15.6106  15.6106  15.9416  15.9416
    16.1593  16.1593  16.6354  16.6354  16.8166  16.8166  16.9898  16.9898
    17.1187  17.1187  17.3034  17.3034  17.3390  17.3390  17.7870  17.7870
    17.8926  17.8926

     the Fermi energy is    16.1677 ev

!    total energy              =   -3111.34795401 Ry
     estimated scf accuracy    <          5.0E-10 Ry
     smearing contrib. (-TS)   =       0.00009748 Ry
     internal energy E=F+TS    =   -3111.34805149 Ry

     The total energy is F=E-TS. E is the sum of the following terms:
     one-electron contribution =   -1208.36193955 Ry
     hartree contribution      =     698.27518825 Ry
     xc contribution           =    -349.40624189 Ry
     ewald contribution        =   -1642.60130586 Ry
     one-center paw contrib.   =    -609.25375245 Ry

     convergence has been achieved in  28 iterations

     negative rho (up, down):  3.232E-03 0.000E+00

     Forces acting on atoms (cartesian axes, Ry/au):

     atom    1 type  1   force =    -0.01332535    0.00769339    0.00000000
     atom    2 type  1   force =     0.01332535   -0.00769339    0.00000000
     atom    3 type  1   force =    -0.00000000    0.01538679    0.00000000
     atom    4 type  1   force =     0.01332535    0.00769339   -0.00000000
     atom    5 type  1   force =     0.00000000   -0.01538679    0.00000000
     atom    6 type  1   force =    -0.01332535   -0.00769339    0.00000000
     atom    7 type  1   force =     0.00000000   -0.00000000    0.00000000
     atom    8 type  1   force =     0.00000000    0.00000000   -0.00000000
     atom    9 type  2   force =     0.00000000    0.00000000   -0.01101882
     atom   10 type  2   force =     0.00000000    0.00000000   -0.01101882
     atom   11 type  2   force =     0.00000000   -0.00000000    0.01101882
     atom   12 type  2   force =     0.00000000    0.00000000    0.01101882

     Total force =     0.043660     Total SCF correction =     0.000028


     Computing stress (Cartesian axis) and pressure


     negative rho (up, down):  3.232E-03 0.000E+00
          total   stress  (Ry/bohr**3)                   (kbar)     P=     -148.14
  -0.00109235   0.00000000   0.00000000         -160.69        0.00        0.00
   0.00000000  -0.00109235   0.00000000            0.00     -160.69        0.00
   0.00000000   0.00000000  -0.00083638            0.00        0.00     -123.04


     Writing all to output data dir ./FeAl.save/ :
     XML data file, charge density, pseudopotentials, collected wavefunctions

     init_run     :      3.62s CPU      3.71s WALL (       1 calls)
     electrons    :    213.70s CPU    216.60s WALL (       1 calls)
     forces       :      0.95s CPU      0.96s WALL (       1 calls)
     stress       :      3.57s CPU      3.61s WALL (       1 calls)

     Called by init_run:
     wfcinit      :      2.91s CPU      2.97s WALL (       1 calls)
     potinit      :      0.18s CPU      0.20s WALL (       1 calls)
     hinit0       :      0.42s CPU      0.43s WALL (       1 calls)

     Called by electrons:
     c_bands      :    184.94s CPU    187.31s WALL (      28 calls)
     sum_band     :     22.66s CPU     23.01s WALL (      28 calls)
     v_of_rho     :      0.24s CPU      0.27s WALL (      29 calls)
     newd         :      1.24s CPU      1.27s WALL (      29 calls)
     PAW_pot      :      4.75s CPU      4.81s WALL (      29 calls)
     mix_rho      :      0.06s CPU      0.07s WALL (      28 calls)

     Called by c_bands:
     init_us_2    :      2.11s CPU      2.13s WALL (    1652 calls)
     cegterg      :    178.21s CPU    180.49s WALL (     784 calls)

     Called by *egterg:
     cdiaghg      :     35.39s CPU     35.61s WALL (    2899 calls)
     h_psi        :     95.67s CPU     97.41s WALL (    2927 calls)
     s_psi        :      9.02s CPU      9.09s WALL (    2927 calls)
     g_psi        :      0.42s CPU      0.43s WALL (    2115 calls)

     Called by h_psi:
     h_psi:calbec :     13.07s CPU     13.19s WALL (    2927 calls)
     vloc_psi     :     73.06s CPU     74.60s WALL (    2927 calls)
     add_vuspsi   :      8.88s CPU      8.95s WALL (    2927 calls)

     General routines
     calbec       :     20.70s CPU     20.88s WALL (    4187 calls)
     fft          :      0.51s CPU      0.53s WALL (     344 calls)
     ffts         :      0.01s CPU      0.01s WALL (      28 calls)
     fftw         :     76.48s CPU     78.03s WALL (  510588 calls)

     Parallel routines

     PWSCF        :    222.52s CPU    233.80s WALL


   This run was terminated on:  16:15:18  27Oct2025            

=------------------------------------------------------------------------------=
   JOB DONE.
=------------------------------------------------------------------------------=
Note: The following floating-point exceptions are signalling: IEEE_UNDERFLOW_FLAG IEEE_DENORMAL
Note: The following floating-point exceptions are signalling: IEEE_UNDERFLOW_FLAG IEEE_DENORMAL
Note: The following floating-point exceptions are signalling: IEEE_UNDERFLOW_FLAG IEEE_DENORMAL
Note: The following floating-point exceptions are signalling: IEEE_UNDERFLOW_FLAG IEEE_DENORMAL
Note: The following floating-point exceptions are signalling: IEEE_UNDERFLOW_FLAG IEEE_DENORMAL
Note: The following floating-point exceptions are signalling: IEEE_UNDERFLOW_FLAG IEEE_DENORMAL
Note: The following floating-point exceptions are signalling: IEEE_UNDERFLOW_FLAG IEEE_DENORMAL
Note: The following floating-point exceptions are signalling: IEEE_UNDERFLOW_FLAG IEEE_DENORMAL
Note: The following floating-point exceptions are signalling: IEEE_UNDERFLOW_FLAG IEEE_DENORMAL
Note: The following floating-point exceptions are signalling: IEEE_UNDERFLOW_FLAG IEEE_DENORMAL
Note: The following floating-point exceptions are signalling: IEEE_UNDERFLOW_FLAG IEEE_DENORMAL
Note: The following floating-point exceptions are signalling: IEEE_UNDERFLOW_FLAG IEEE_DENORMAL
Note: The following floating-point exceptions are signalling: IEEE_UNDERFLOW_FLAG IEEE_DENORMAL
Note: The following floating-point exceptions are signalling: IEEE_UNDERFLOW_FLAG IEEE_DENORMAL
Note: The following floating-point exceptions are signalling: IEEE_UNDERFLOW_FLAG IEEE_DENORMAL
Note: The following floating-point exceptions are signalling: IEEE_UNDERFLOW_FLAG IEEE_DENORMAL
