
     Program PWSCF v.7.4 starts on 27Oct2025 at 16:19:18 

     This program is part of the open-source Quantum ESPRESSO suite
     for quantum simulation of materials; please cite
         "P. Giannozzi et al., J. Phys.:Condens. Matter 21 395502 (2009);
         "P. Giannozzi et al., J. Phys.:Condens. Matter 29 465901 (2017);
         "P. Giannozzi et al., J. Chem. Phys. 152 154105 (2020);
          URL http://www.quantum-espresso.org", 
     in publications or presentations arising from this work. More details at
     http://www.quantum-espresso.org/quote

     Parallel version (MPI & OpenMP), running on      16 processor cores
     Number of MPI processes:                16
     Threads/MPI process:                     1

     MPI processes distributed on     1 nodes
     226967 MiB available memory on the printing compute node when the environment starts

     Reading input from TiFe2_ecutrho_convergence/TiFe2_factor6.in

     Current dimensions of program PWSCF are:
     Max number of different atomic species (ntypx) = 10
     Max number of k-points (npk) =  40000
     Max angular momentum in pseudopotentials (lmaxx) =  4
     file Fe.pbe-spn-kjpaw_psl.0.2.1.UPF: wavefunction(s)  3D renormalized

     IMPORTANT: XC functional enforced from input :
     Exchange-correlation= PBE
                           (   1   4   3   4   0   0   0)
     Any further DFT definition will be discarded
     Please, verify this is what you really want

     Message from routine setup:
     using ibrav=0 with symmetry is DISCOURAGED, use correct ibrav instead

     R & G space division:  proc/nbgrp/npool/nimage =      16
     Subspace diagonalization in iterative solution of the eigenvalue problem:
     a serial algorithm will be used


     Parallelization info
     --------------------
     sticks:   dense  smooth     PW     G-vecs:    dense   smooth      PW
     Min         194     129     36                14236     7763    1138
     Max         195     131     37                14241     7768    1143
     Sum        3115    2077    583               227839   124229   18233

     Using Slab Decomposition



     bravais-lattice index     =            0
     lattice parameter (alat)  =       9.1568  a.u.
     unit-cell volume          =    1075.5644 (a.u.)^3
     number of atoms/cell      =           12
     number of atomic types    =            2
     number of electrons       =       176.00
     number of Kohn-Sham states=          106
     kinetic-energy cutoff     =      90.0000  Ry
     charge density cutoff     =     540.0000  Ry
     scf convergence threshold =      1.0E-08
     mixing beta               =       0.7000
     number of iterations used =            8  plain     mixing
     Exchange-correlation= PBE
                           (   1   4   3   4   0   0   0)

     celldm(1)=   9.156781  celldm(2)=   0.000000  celldm(3)=   0.000000
     celldm(4)=   0.000000  celldm(5)=   0.000000  celldm(6)=   0.000000

     crystal axes: (cart. coord. in units of alat)
               a(1) = (   1.000000   0.000000   0.000000 )  
               a(2) = (  -0.500000   0.866025   0.000000 )  
               a(3) = (   0.000000   0.000000   1.617623 )  

     reciprocal axes: (cart. coord. in units 2 pi/alat)
               b(1) = (  1.000000  0.577350 -0.000000 )  
               b(2) = (  0.000000  1.154701  0.000000 )  
               b(3) = (  0.000000 -0.000000  0.618191 )  


     PseudoPot. # 1 for Fe read from file:
     ./Fe.pbe-spn-kjpaw_psl.0.2.1.UPF
     MD5 check sum: e86618425769142926afa95317d90200
     Pseudo is Projector augmented-wave + core cor, Zval = 16.0
     Generated using "atomic" code by A. Dal Corso  v.5.0.99 svn rev. 10869
     Shape of augmentation charge: PSQ
     Using radial grid of 1191 points,  6 beta functions with: 
                l(1) =   0
                l(2) =   0
                l(3) =   1
                l(4) =   1
                l(5) =   2
                l(6) =   2
     Q(r) pseudized with 0 coefficients 


     PseudoPot. # 2 for Ti read from file:
     ./Ti_pbe_v1.4.uspp.F.UPF
     MD5 check sum: 88a00a6731bd790ddea75d31a80cb452
     Pseudo is Ultrasoft + core correction, Zval = 12.0
     Generated by new atomic code, or converted to UPF format
     Using radial grid of  851 points,  6 beta functions with: 
                l(1) =   0
                l(2) =   0
                l(3) =   1
                l(4) =   1
                l(5) =   2
                l(6) =   2
     Q(r) pseudized with  6 coefficients,  rinner =    1.000   1.000   1.000
                                                       1.000   1.000

     atomic species   valence    mass     pseudopotential
     Fe               16.00    55.84500     Fe( 1.00)
     Ti               12.00    47.86700     Ti( 1.00)

     24 Sym. Ops., with inversion, found (12 have fractional translation)



   Cartesian axes

     site n.     atom                  positions (alat units)
         1        Fe     tau(   1) = (   0.7465670   0.1463196   0.4044057  )
         2        Fe     tau(   2) = (  -0.2465670   0.7197058   1.2132171  )
         3        Fe     tau(   3) = (  -0.0000000   0.2926392   1.2132171  )
         4        Fe     tau(   4) = (   0.2534330   0.1463196   0.4044057  )
         5        Fe     tau(   5) = (   0.5000000   0.5733862   0.4044057  )
         6        Fe     tau(   6) = (   0.2465670   0.7197058   1.2132171  )
         7        Fe     tau(   7) = (   0.0000000   0.0000000   0.0000000  )
         8        Fe     tau(   8) = (   0.0000000   0.0000000   0.8088114  )
         9        Ti     tau(   9) = (   0.5000000   0.2886751   1.5200090  )
        10        Ti     tau(  10) = (  -0.0000000   0.5773503   0.7111976  )
        11        Ti     tau(  11) = (  -0.0000000   0.5773503   0.0976138  )
        12        Ti     tau(  12) = (   0.5000000   0.2886751   0.9064252  )

     number of k points=    28  Marzari-Vanderbilt smearing, width (Ry)=  0.0050
                       cart. coord. in units 2pi/alat
        k(    1) = (   0.0000000   0.0000000   0.0000000), wk =   0.0092593
        k(    2) = (   0.0000000   0.0000000   0.1030318), wk =   0.0185185
        k(    3) = (   0.0000000   0.0000000   0.2060637), wk =   0.0185185
        k(    4) = (   0.0000000   0.0000000  -0.3090955), wk =   0.0092593
        k(    5) = (   0.0000000   0.1924501   0.0000000), wk =   0.0555556
        k(    6) = (   0.0000000   0.1924501   0.1030318), wk =   0.1111111
        k(    7) = (   0.0000000   0.1924501   0.2060637), wk =   0.1111111
        k(    8) = (   0.0000000   0.1924501  -0.3090955), wk =   0.0555556
        k(    9) = (   0.0000000   0.3849002   0.0000000), wk =   0.0555556
        k(   10) = (   0.0000000   0.3849002   0.1030318), wk =   0.1111111
        k(   11) = (   0.0000000   0.3849002   0.2060637), wk =   0.1111111
        k(   12) = (   0.0000000   0.3849002  -0.3090955), wk =   0.0555556
        k(   13) = (   0.0000000  -0.5773503   0.0000000), wk =   0.0277778
        k(   14) = (   0.0000000  -0.5773503   0.1030318), wk =   0.0555556
        k(   15) = (   0.0000000  -0.5773503   0.2060637), wk =   0.0555556
        k(   16) = (   0.0000000  -0.5773503  -0.3090955), wk =   0.0277778
        k(   17) = (   0.1666667   0.2886751   0.0000000), wk =   0.0555556
        k(   18) = (   0.1666667   0.2886751   0.1030318), wk =   0.1111111
        k(   19) = (   0.1666667   0.2886751   0.2060637), wk =   0.1111111
        k(   20) = (   0.1666667   0.2886751  -0.3090955), wk =   0.0555556
        k(   21) = (   0.1666667   0.4811252   0.0000000), wk =   0.1111111
        k(   22) = (   0.1666667   0.4811252   0.1030318), wk =   0.2222222
        k(   23) = (   0.1666667   0.4811252   0.2060637), wk =   0.2222222
        k(   24) = (   0.1666667   0.4811252  -0.3090955), wk =   0.1111111
        k(   25) = (   0.3333333   0.5773503   0.0000000), wk =   0.0185185
        k(   26) = (   0.3333333   0.5773503   0.1030318), wk =   0.0370370
        k(   27) = (   0.3333333   0.5773503   0.2060637), wk =   0.0370370
        k(   28) = (   0.3333333   0.5773503  -0.3090955), wk =   0.0185185

     Dense  grid:   227839 G-vectors     FFT dimensions: (  72,  72, 120)

     Smooth grid:   124229 G-vectors     FFT dimensions: (  60,  60,  90)

     Estimated max dynamical RAM per process >     106.86 MB

     Estimated total dynamical RAM >       1.67 GB

     Check: negative core charge=   -0.000043

     Initial potential from superposition of free atoms

     starting charge     171.9963, renormalised to     176.0000

     negative rho (up, down):  5.109E-03 0.000E+00
     Starting wfcs are  144 randomized atomic wfcs
     Checking if some PAW data can be deallocated... 

     total cpu time spent up to now is        4.8 secs

     per-process dynamical memory:   176.0 Mb

     Self-consistent Calculation

     iteration #  1     ecut=    90.00 Ry     beta= 0.70
     Davidson diagonalization with overlap
     ethr =  1.00E-02,  avg # of iterations =  2.0

     negative rho (up, down):  8.040E-04 0.000E+00

     total cpu time spent up to now is       12.4 secs

     total energy              =   -3017.03137610 Ry
     estimated scf accuracy    <     116.54538252 Ry

     iteration #  2     ecut=    90.00 Ry     beta= 0.70
     Davidson diagonalization with overlap
     ethr =  1.00E-02,  avg # of iterations =  6.7

     total cpu time spent up to now is       28.2 secs

     total energy              =   -3075.96958584 Ry
     estimated scf accuracy    <     699.74208815 Ry

     iteration #  3     ecut=    90.00 Ry     beta= 0.70
     Davidson diagonalization with overlap
     ethr =  1.00E-02,  avg # of iterations =  5.1

     total cpu time spent up to now is       40.3 secs

     total energy              =   -3120.92283172 Ry
     estimated scf accuracy    <      91.50638396 Ry

     iteration #  4     ecut=    90.00 Ry     beta= 0.70
     Davidson diagonalization with overlap
     ethr =  1.00E-02,  avg # of iterations =  1.2

     negative rho (up, down):  1.614E-05 0.000E+00

     total cpu time spent up to now is       46.4 secs

     total energy              =   -3116.48469315 Ry
     estimated scf accuracy    <      54.40039277 Ry

     iteration #  5     ecut=    90.00 Ry     beta= 0.70
     Davidson diagonalization with overlap
     ethr =  1.00E-02,  avg # of iterations =  1.7

     negative rho (up, down):  1.702E-04 0.000E+00

     total cpu time spent up to now is       52.8 secs

     total energy              =   -3115.18039352 Ry
     estimated scf accuracy    <      41.78210767 Ry

     iteration #  6     ecut=    90.00 Ry     beta= 0.70
     Davidson diagonalization with overlap
     ethr =  1.00E-02,  avg # of iterations =  1.0

     negative rho (up, down):  4.478E-04 0.000E+00

     total cpu time spent up to now is       58.8 secs

     total energy              =   -3113.66935353 Ry
     estimated scf accuracy    <      26.00689000 Ry

     iteration #  7     ecut=    90.00 Ry     beta= 0.70
     Davidson diagonalization with overlap
     ethr =  1.00E-02,  avg # of iterations =  1.0

     negative rho (up, down):  1.165E-03 0.000E+00

     total cpu time spent up to now is       64.8 secs

     total energy              =   -3111.34159066 Ry
     estimated scf accuracy    <      18.34256943 Ry

     iteration #  8     ecut=    90.00 Ry     beta= 0.70
     Davidson diagonalization with overlap
     ethr =  1.00E-02,  avg # of iterations =  1.0

     negative rho (up, down):  1.336E-03 0.000E+00

     total cpu time spent up to now is       70.8 secs

     total energy              =   -3111.48287681 Ry
     estimated scf accuracy    <       6.17404896 Ry

     iteration #  9     ecut=    90.00 Ry     beta= 0.70
     Davidson diagonalization with overlap
     ethr =  3.51E-03,  avg # of iterations =  1.8

     negative rho (up, down):  1.888E-03 0.000E+00

     total cpu time spent up to now is       77.4 secs

     total energy              =   -3111.23487595 Ry
     estimated scf accuracy    <       4.39171375 Ry

     iteration # 10     ecut=    90.00 Ry     beta= 0.70
     Davidson diagonalization with overlap
     ethr =  2.50E-03,  avg # of iterations =  2.2

     negative rho (up, down):  4.572E-03 0.000E+00

     total cpu time spent up to now is       84.1 secs

     total energy              =   -3110.91869291 Ry
     estimated scf accuracy    <       1.49341601 Ry

     iteration # 11     ecut=    90.00 Ry     beta= 0.70
     Davidson diagonalization with overlap
     ethr =  8.49E-04,  avg # of iterations =  5.1

     negative rho (up, down):  3.509E-03 0.000E+00

     total cpu time spent up to now is       94.8 secs

     total energy              =   -3111.28694402 Ry
     estimated scf accuracy    <       7.10195288 Ry

     iteration # 12     ecut=    90.00 Ry     beta= 0.70
     Davidson diagonalization with overlap
     ethr =  8.49E-04,  avg # of iterations =  1.2

     negative rho (up, down):  1.613E-03 0.000E+00

     total cpu time spent up to now is      100.9 secs

     total energy              =   -3111.10155912 Ry
     estimated scf accuracy    <       1.48646162 Ry

     iteration # 13     ecut=    90.00 Ry     beta= 0.70
     Davidson diagonalization with overlap
     ethr =  8.45E-04,  avg # of iterations =  3.3

     negative rho (up, down):  2.373E-03 0.000E+00

     total cpu time spent up to now is      108.8 secs

     total energy              =   -3111.39889331 Ry
     estimated scf accuracy    <       1.34684477 Ry

     iteration # 14     ecut=    90.00 Ry     beta= 0.70
     Davidson diagonalization with overlap
     ethr =  7.65E-04,  avg # of iterations =  1.0

     negative rho (up, down):  2.849E-03 0.000E+00

     total cpu time spent up to now is      114.8 secs

     total energy              =   -3111.33381689 Ry
     estimated scf accuracy    <       0.86885287 Ry

     iteration # 15     ecut=    90.00 Ry     beta= 0.70
     Davidson diagonalization with overlap
     ethr =  4.94E-04,  avg # of iterations =  1.1

     negative rho (up, down):  2.930E-03 0.000E+00

     total cpu time spent up to now is      120.9 secs

     total energy              =   -3111.34897676 Ry
     estimated scf accuracy    <       0.13596406 Ry

     iteration # 16     ecut=    90.00 Ry     beta= 0.70
     Davidson diagonalization with overlap
     ethr =  7.73E-05,  avg # of iterations =  1.7

     negative rho (up, down):  2.964E-03 0.000E+00

     total cpu time spent up to now is      127.3 secs

     total energy              =   -3111.34986381 Ry
     estimated scf accuracy    <       0.06990612 Ry

     iteration # 17     ecut=    90.00 Ry     beta= 0.70
     Davidson diagonalization with overlap
     ethr =  3.97E-05,  avg # of iterations =  2.2

     negative rho (up, down):  3.082E-03 0.000E+00

     total cpu time spent up to now is      133.8 secs

     total energy              =   -3111.34563430 Ry
     estimated scf accuracy    <       0.07009695 Ry

     iteration # 18     ecut=    90.00 Ry     beta= 0.70
     Davidson diagonalization with overlap
     ethr =  3.97E-05,  avg # of iterations =  1.8

     negative rho (up, down):  3.192E-03 0.000E+00

     total cpu time spent up to now is      140.2 secs

     total energy              =   -3111.34453032 Ry
     estimated scf accuracy    <       0.02071030 Ry

     iteration # 19     ecut=    90.00 Ry     beta= 0.70
     Davidson diagonalization with overlap
     ethr =  1.18E-05,  avg # of iterations =  6.1

     negative rho (up, down):  3.194E-03 0.000E+00

     total cpu time spent up to now is      148.7 secs

     total energy              =   -3111.34616798 Ry
     estimated scf accuracy    <       0.00001432 Ry

     iteration # 20     ecut=    90.00 Ry     beta= 0.70
     Davidson diagonalization with overlap
     ethr =  8.13E-09,  avg # of iterations = 12.0

     negative rho (up, down):  3.200E-03 0.000E+00

     total cpu time spent up to now is      175.6 secs

     total energy              =   -3111.34645576 Ry
     estimated scf accuracy    <       0.00007050 Ry

     iteration # 21     ecut=    90.00 Ry     beta= 0.70
     Davidson diagonalization with overlap
     ethr =  8.13E-09,  avg # of iterations =  1.1

     negative rho (up, down):  3.201E-03 0.000E+00

     total cpu time spent up to now is      181.6 secs

     total energy              =   -3111.34645520 Ry
     estimated scf accuracy    <       0.00003849 Ry

     iteration # 22     ecut=    90.00 Ry     beta= 0.70
     Davidson diagonalization with overlap
     ethr =  8.13E-09,  avg # of iterations =  1.0

     negative rho (up, down):  3.206E-03 0.000E+00

     total cpu time spent up to now is      187.7 secs

     total energy              =   -3111.34645709 Ry
     estimated scf accuracy    <       0.00001088 Ry

     iteration # 23     ecut=    90.00 Ry     beta= 0.70
     Davidson diagonalization with overlap
     ethr =  6.18E-09,  avg # of iterations =  1.0

     negative rho (up, down):  3.203E-03 0.000E+00

     total cpu time spent up to now is      193.6 secs

     total energy              =   -3111.34645412 Ry
     estimated scf accuracy    <       0.00004461 Ry

     iteration # 24     ecut=    90.00 Ry     beta= 0.70
     Davidson diagonalization with overlap
     ethr =  6.18E-09,  avg # of iterations =  1.4

     negative rho (up, down):  3.202E-03 0.000E+00

     total cpu time spent up to now is      199.9 secs

     total energy              =   -3111.34645461 Ry
     estimated scf accuracy    <       0.00000483 Ry

     iteration # 25     ecut=    90.00 Ry     beta= 0.70
     Davidson diagonalization with overlap
     ethr =  2.75E-09,  avg # of iterations =  3.1

     negative rho (up, down):  3.202E-03 0.000E+00

     total cpu time spent up to now is      207.3 secs

     total energy              =   -3111.34645515 Ry
     estimated scf accuracy    <       0.00000015 Ry

     iteration # 26     ecut=    90.00 Ry     beta= 0.70
     Davidson diagonalization with overlap
     ethr =  8.73E-11,  avg # of iterations =  5.2

     negative rho (up, down):  3.202E-03 0.000E+00

     total cpu time spent up to now is      218.6 secs

     total energy              =   -3111.34645520 Ry
     estimated scf accuracy    <       0.00000061 Ry

     iteration # 27     ecut=    90.00 Ry     beta= 0.70
     Davidson diagonalization with overlap
     ethr =  8.73E-11,  avg # of iterations =  1.4

     negative rho (up, down):  3.202E-03 0.000E+00

     total cpu time spent up to now is      224.9 secs

     total energy              =   -3111.34645520 Ry
     estimated scf accuracy    <       0.00000014 Ry

     iteration # 28     ecut=    90.00 Ry     beta= 0.70
     Davidson diagonalization with overlap
     ethr =  7.70E-11,  avg # of iterations =  2.4

     negative rho (up, down):  3.202E-03 0.000E+00

     total cpu time spent up to now is      231.8 secs

     End of self-consistent calculation

          k = 0.0000 0.0000 0.0000 ( 15507 PWs)   bands (ev):

   -70.7851 -70.7625 -70.7267 -70.7039 -70.6995 -70.6995 -70.6995 -70.6995
   -40.8833 -40.8691 -40.8338 -40.8185 -37.1894 -37.1196 -37.0105 -36.8916
   -36.8916 -36.8715 -36.8715 -36.8577 -36.8577 -36.7983 -36.7869 -36.7461
   -36.7461 -36.7433 -36.7433 -36.6450 -36.6427 -36.6427 -36.6416 -36.6416
   -36.6329 -36.6329 -36.6200 -36.6200 -17.1753 -17.1753 -17.1613 -17.1613
   -17.1600 -17.1583 -17.0194 -17.0164 -17.0021 -17.0021 -16.9874 -16.9874
     8.6178  10.6479  11.4215  12.0189  12.5089  12.6095  12.7685  12.7685
    12.9888  12.9888  13.1993  13.2939  13.3855  13.3855  13.8273  13.8273
    13.9656  13.9656  14.2076  14.2942  14.2942  14.3192  14.3192  14.7763
    14.7763  14.9086  15.3894  15.3894  15.5085  15.5085  15.8280  15.9119
    15.9119  15.9148  15.9148  16.0611  16.0640  16.0640  16.0714  16.1327
    16.1598  16.1598  16.2313  16.2769  16.2769  16.7292  16.7292  16.7452
    16.9882  16.9882  17.2873  17.2873  17.4911  17.4911  17.5141  17.5144
    17.7864  17.7864

          k = 0.0000 0.0000 0.1030 ( 15471 PWs)   bands (ev):

   -70.7840 -70.7648 -70.7244 -70.7050 -70.6995 -70.6995 -70.6995 -70.6995
   -40.8826 -40.8704 -40.8324 -40.8193 -37.1864 -37.1282 -36.9972 -36.8911
   -36.8911 -36.8762 -36.8762 -36.8499 -36.8499 -36.8369 -36.7697 -36.7697
   -36.7513 -36.7200 -36.7200 -36.6498 -36.6498 -36.6496 -36.6377 -36.6377
   -36.6330 -36.6330 -36.6200 -36.6200 -17.1745 -17.1745 -17.1623 -17.1623
   -17.1596 -17.1582 -17.0195 -17.0169 -17.0010 -17.0010 -16.9884 -16.9884
     8.6946  10.2979  11.7128  12.0196  12.4081  12.7818  12.7818  12.7993
    12.9710  12.9710  13.0473  13.3954  13.4121  13.4121  13.8042  13.8042
    13.9483  13.9483  14.1833  14.1833  14.2745  14.4633  14.4633  14.8321
    14.8321  14.9433  15.3157  15.3157  15.4201  15.4201  15.7045  15.8483
    15.9285  15.9285  16.0202  16.0202  16.0558  16.0558  16.0755  16.1286
    16.1645  16.1645  16.2166  16.2166  16.3676  16.7975  16.7975  16.9623
    16.9787  16.9787  17.2794  17.2794  17.4935  17.4936  17.5141  17.5143
    17.7698  17.7698

          k = 0.0000 0.0000 0.2061 ( 15471 PWs)   bands (ev):

   -70.7808 -70.7701 -70.7191 -70.7083 -70.6995 -70.6995 -70.6995 -70.6995
   -40.8805 -40.8736 -40.8290 -40.8216 -37.1777 -37.1460 -36.9656 -36.8895
   -36.8895 -36.8822 -36.8822 -36.8816 -36.8348 -36.8348 -36.7938 -36.7938
   -36.7154 -36.6972 -36.6972 -36.6633 -36.6614 -36.6614 -36.6352 -36.6352
   -36.6333 -36.6333 -36.6200 -36.6200 -17.1720 -17.1720 -17.1650 -17.1650
   -17.1589 -17.1580 -17.0194 -17.0179 -16.9982 -16.9982 -16.9909 -16.9909
     8.9211   9.7622  11.9823  12.0213  12.4583  12.8186  12.8186  12.8587
    12.9264  12.9264  13.0614  13.4124  13.4850  13.4850  13.7122  13.7122
    13.9588  13.9588  14.0864  14.0864  14.4999  14.6541  14.6541  14.9410
    14.9410  15.0285  15.1525  15.1525  15.2779  15.2779  15.4660  15.4913
    15.9606  15.9606  16.0259  16.0259  16.0813  16.0813  16.0866  16.1173
    16.1198  16.1198  16.3269  16.3269  16.6103  16.8003  16.8003  17.0141
    17.0141  17.2415  17.2415  17.3935  17.5141  17.5441  17.5441  17.5626
    17.7189  17.7189

          k = 0.0000 0.0000-0.3091 ( 15500 PWs)   bands (ev):

   -70.7759 -70.7759 -70.7132 -70.7132 -70.6995 -70.6995 -70.6995 -70.6995
   -40.8773 -40.8773 -40.8250 -40.8250 -37.1637 -37.1637 -36.9255 -36.9255
   -36.8866 -36.8866 -36.8866 -36.8866 -36.8158 -36.8158 -36.8158 -36.8158
   -36.6856 -36.6856 -36.6774 -36.6774 -36.6774 -36.6774 -36.6339 -36.6339
   -36.6339 -36.6339 -36.6200 -36.6200 -17.1686 -17.1686 -17.1686 -17.1686
   -17.1582 -17.1582 -17.0189 -17.0189 -16.9945 -16.9945 -16.9945 -16.9945
     9.2851   9.2851  12.0228  12.0228  12.6650  12.6650  12.8708  12.8708
    12.8708  12.8708  13.2881  13.2881  13.5913  13.5913  13.5913  13.5913
    14.0103  14.0103  14.0103  14.0103  14.8634  14.8634  14.8634  14.8634
    14.8722  14.8722  15.1483  15.1483  15.1483  15.1483  15.3169  15.3169
    16.0012  16.0012  16.0012  16.0012  16.0678  16.0678  16.0678  16.0678
    16.1019  16.1019  16.5879  16.5879  16.5879  16.5879  16.9835  16.9835
    17.1489  17.1489  17.1489  17.1489  17.5142  17.5142  17.6364  17.6364
    17.6364  17.6364

          k = 0.0000 0.1925 0.0000 ( 15506 PWs)   bands (ev):

   -70.7816 -70.7589 -70.7267 -70.7123 -70.7031 -70.6995 -70.6995 -70.6947
   -40.8806 -40.8662 -40.8369 -40.8214 -37.1678 -37.0982 -37.0080 -36.8905
   -36.8779 -36.8769 -36.8616 -36.8577 -36.8563 -36.7916 -36.7870 -36.7532
   -36.7460 -36.7441 -36.7435 -36.6594 -36.6541 -36.6503 -36.6459 -36.6427
   -36.6413 -36.6399 -36.6268 -36.6254 -17.1897 -17.1798 -17.1653 -17.1621
   -17.1570 -17.1374 -17.0357 -17.0123 -17.0073 -16.9979 -16.9832 -16.9797
     8.8837  10.8508  11.5997  12.1305  12.5489  12.6040  12.7142  12.8106
    12.9003  13.1530  13.1566  13.3962  13.4398  13.4679  13.7822  13.8805
    13.9661  14.0691  14.2446  14.2827  14.2952  14.3204  14.3666  14.6302
    14.6986  14.7107  15.0241  15.2175  15.2239  15.2790  15.4967  15.5672
    15.7636  15.8572  15.8798  15.9579  16.0031  16.0686  16.1145  16.1931
    16.2177  16.3005  16.3273  16.3561  16.4910  16.6272  16.8017  16.8953
    16.9056  17.0131  17.2896  17.3008  17.3348  17.5241  17.5428  17.5478
    17.5774  17.9176

          k = 0.0000 0.1925 0.1030 ( 15503 PWs)   bands (ev):

   -70.7805 -70.7612 -70.7247 -70.7126 -70.7028 -70.6995 -70.6995 -70.6955
   -40.8799 -40.8676 -40.8354 -40.8222 -37.1649 -37.1074 -36.9945 -36.8901
   -36.8829 -36.8775 -36.8650 -36.8537 -36.8459 -36.8292 -36.7739 -36.7691
   -36.7509 -36.7246 -36.7207 -36.6609 -36.6552 -36.6542 -36.6474 -36.6426
   -36.6422 -36.6413 -36.6266 -36.6255 -17.1882 -17.1788 -17.1663 -17.1656
   -17.1541 -17.1383 -17.0347 -17.0163 -17.0030 -16.9968 -16.9842 -16.9810
     8.9586  10.5151  11.8757  12.1315  12.4542  12.6570  12.7810  12.8297
    12.9363  13.1222  13.1311  13.3675  13.4707  13.5011  13.7767  13.8656
    13.9371  14.0354  14.1365  14.2178  14.3253  14.4433  14.5016  14.6907
    14.7328  14.7597  15.0253  15.1654  15.1828  15.2537  15.5066  15.5556
    15.6795  15.8071  15.8580  15.9274  16.0071  16.0371  16.1194  16.1694
    16.2036  16.2904  16.3053  16.3991  16.4986  16.6846  16.7878  16.9072
    16.9602  17.0948  17.2833  17.3225  17.3346  17.4694  17.5456  17.5719
    17.6245  17.8933

          k = 0.0000 0.1925 0.2061 ( 15491 PWs)   bands (ev):

   -70.7773 -70.7666 -70.7203 -70.7138 -70.7017 -70.6995 -70.6995 -70.6974
   -40.8778 -40.8709 -40.8319 -40.8245 -37.1565 -37.1255 -36.9640 -36.8985
   -36.8862 -36.8763 -36.8705 -36.8638 -36.8384 -36.8314 -36.7975 -36.7924
   -36.7181 -36.7044 -36.6985 -36.6665 -36.6642 -36.6621 -36.6494 -36.6473
   -36.6417 -36.6413 -36.6262 -36.6256 -17.1841 -17.1763 -17.1715 -17.1691
   -17.1496 -17.1410 -17.0318 -17.0220 -16.9966 -16.9940 -16.9867 -16.9847
     9.1795   9.9973  12.1187  12.1390  12.4826  12.6840  12.8037  12.8835
    13.0260  13.0489  13.1137  13.3676  13.5192  13.5510  13.7013  13.7865
    13.9479  14.0176  14.0589  14.1255  14.4500  14.6546  14.6743  14.7859
    14.8345  14.8401  14.9910  15.0775  15.0957  15.1735  15.3497  15.4353
    15.6714  15.8066  15.8566  15.8937  15.9199  16.0232  16.0552  16.0958
    16.1993  16.2945  16.3278  16.5048  16.5577  16.6867  16.7348  16.8212
    17.0746  17.2452  17.2650  17.3438  17.3930  17.5124  17.5389  17.6167
    17.6228  17.8239

          k = 0.0000 0.1925-0.3091 ( 15474 PWs)   bands (ev):

   -70.7724 -70.7724 -70.7164 -70.7164 -70.6998 -70.6998 -70.6995 -70.6995
   -40.8747 -40.8747 -40.8279 -40.8279 -37.1430 -37.1430 -36.9281 -36.9281
   -36.8806 -36.8806 -36.8741 -36.8741 -36.8193 -36.8193 -36.8134 -36.8134
   -36.6970 -36.6970 -36.6792 -36.6792 -36.6718 -36.6718 -36.6493 -36.6493
   -36.6414 -36.6414 -36.6258 -36.6258 -17.1781 -17.1781 -17.1728 -17.1728
   -17.1449 -17.1449 -17.0274 -17.0274 -16.9903 -16.9903 -16.9902 -16.9902
     9.5340   9.5340  12.1424  12.1424  12.6260  12.6260  12.8925  12.8925
    12.9619  12.9619  13.2866  13.2866  13.5870  13.5870  13.6637  13.6637
    14.0010  14.0010  14.0565  14.0565  14.6723  14.6723  14.8189  14.8189
    14.8844  14.8844  14.9551  14.9551  15.0950  15.0950  15.2748  15.2748
    15.7858  15.7858  15.8457  15.8457  15.9250  15.9250  16.0539  16.0539
    16.2481  16.2481  16.4871  16.4871  16.6494  16.6494  16.6861  16.6861
    17.1770  17.1770  17.3493  17.3493  17.4716  17.4716  17.5380  17.5380
    17.7226  17.7226

          k = 0.0000 0.3849 0.0000 ( 15504 PWs)   bands (ev):

   -70.7730 -70.7497 -70.7267 -70.7244 -70.7124 -70.6995 -70.6995 -70.6913
   -40.8734 -40.8586 -40.8447 -40.8291 -37.1157 -37.0472 -37.0027 -36.9060
   -36.8754 -36.8678 -36.8578 -36.8437 -36.8156 -36.7871 -36.7822 -36.7636
   -36.7475 -36.7460 -36.7444 -36.7152 -36.6872 -36.6865 -36.6731 -36.6528
   -36.6427 -36.6313 -36.6311 -36.6274 -17.1985 -17.1881 -17.1726 -17.1711
   -17.1470 -17.1096 -17.0612 -17.0190 -17.0029 -16.9902 -16.9754 -16.9738
     9.6322  11.3551  12.0189  12.0468  12.4028  12.5946  12.6506  12.9357
    13.0021  13.0734  13.5550  13.5699  13.5907  13.6370  13.7326  13.9211
    14.0023  14.1418  14.2442  14.2779  14.3259  14.3684  14.4106  14.4429
    14.4938  14.5403  14.5454  14.7689  14.7843  14.8844  14.9699  15.0729
    15.0975  15.3991  15.7130  15.9941  16.0847  16.1405  16.1487  16.1934
    16.2034  16.3321  16.4113  16.6267  16.6403  16.7400  16.7448  16.8447
    16.8551  17.0221  17.0264  17.3381  17.3930  17.6187  17.6753  17.6918
    17.7354  18.2597

          k = 0.0000 0.3849 0.1030 ( 15519 PWs)   bands (ev):

   -70.7718 -70.7521 -70.7261 -70.7245 -70.7105 -70.6995 -70.6995 -70.6924
   -40.8728 -40.8605 -40.8427 -40.8298 -37.1133 -37.0588 -36.9882 -36.9089
   -36.8779 -36.8597 -36.8564 -36.8442 -36.8145 -36.8141 -36.7836 -36.7659
   -36.7545 -36.7358 -36.7247 -36.7119 -36.6878 -36.6831 -36.6723 -36.6559
   -36.6459 -36.6348 -36.6303 -36.6275 -17.1966 -17.1871 -17.1738 -17.1726
   -17.1457 -17.1138 -17.0572 -17.0220 -17.0000 -16.9891 -16.9763 -16.9754
     9.7009  11.0872  11.9787  12.3211  12.3563  12.6114  12.6791  12.9391
    12.9649  13.1409  13.4629  13.4886  13.6568  13.7145  13.7396  13.9076
    13.9908  14.0981  14.2069  14.2734  14.2969  14.3024  14.3889  14.4839
    14.5472  14.5943  14.6568  14.7709  14.7959  14.9431  14.9702  15.0511
    15.1201  15.4180  15.7129  15.8935  16.0197  16.0603  16.1017  16.1551
    16.2135  16.3773  16.3908  16.6337  16.6481  16.7105  16.7307  16.8466
    16.8787  17.0676  17.1726  17.2889  17.3710  17.4872  17.6480  17.7184
    17.9661  18.1931

          k = 0.0000 0.3849 0.2061 ( 15519 PWs)   bands (ev):

   -70.7686 -70.7577 -70.7253 -70.7246 -70.7058 -70.6995 -70.6995 -70.6955
   -40.8709 -40.8642 -40.8388 -40.8318 -37.1058 -37.0774 -36.9619 -36.9185
   -36.8757 -36.8529 -36.8471 -36.8459 -36.8412 -36.8090 -36.8050 -36.7846
   -36.7384 -36.7289 -36.7073 -36.6981 -36.6900 -36.6731 -36.6691 -36.6650
   -36.6536 -36.6446 -36.6290 -36.6278 -17.1915 -17.1844 -17.1774 -17.1767
   -17.1410 -17.1229 -17.0482 -17.0289 -16.9936 -16.9862 -16.9798 -16.9789
     9.9027  10.6386  12.0316  12.2462  12.5904  12.6556  12.7447  12.8914
    13.0486  13.1963  13.3227  13.3703  13.7419  13.7516  13.8041  13.8939
    13.9403  14.0402  14.1777  14.1925  14.2404  14.3200  14.4497  14.5263
    14.5799  14.6200  14.7190  14.8446  14.8531  14.9648  14.9961  15.0484
    15.2563  15.4997  15.6957  15.7638  15.8557  15.9315  15.9505  16.0061
    16.2568  16.3514  16.4405  16.6243  16.6820  16.7006  16.7093  16.8475
    16.9468  17.1318  17.1694  17.3076  17.3798  17.5168  17.6419  17.8153
    17.9859  18.0877

          k = 0.0000 0.3849-0.3091 ( 15504 PWs)   bands (ev):

   -70.7636 -70.7636 -70.7248 -70.7248 -70.7003 -70.7003 -70.6995 -70.6995
   -40.8679 -40.8679 -40.8349 -40.8349 -37.0937 -37.0937 -36.9366 -36.9366
   -36.8651 -36.8651 -36.8489 -36.8489 -36.8259 -36.8259 -36.7992 -36.7992
   -36.7306 -36.7306 -36.6956 -36.6956 -36.6799 -36.6799 -36.6625 -36.6625
   -36.6587 -36.6587 -36.6282 -36.6282 -17.1844 -17.1844 -17.1806 -17.1806
   -17.1329 -17.1329 -17.0380 -17.0380 -16.9863 -16.9863 -16.9825 -16.9825
    10.2242  10.2242  12.1272  12.1272  12.6758  12.6758  12.8346  12.8346
    13.1748  13.1748  13.2652  13.2652  13.7744  13.7744  13.8433  13.8433
    13.9790  13.9790  14.1939  14.1939  14.2487  14.2487  14.5084  14.5084
    14.6016  14.6016  14.7872  14.7872  14.9526  14.9526  15.0259  15.0259
    15.5124  15.5124  15.6590  15.6590  15.7959  15.7959  15.8963  15.8963
    16.3154  16.3154  16.5421  16.5421  16.6592  16.6592  16.7974  16.7974
    17.0503  17.0503  17.2130  17.2130  17.5382  17.5382  17.7510  17.7510
    17.9562  17.9562

          k = 0.0000-0.5774 0.0000 ( 15546 PWs)   bands (ev):

   -70.7669 -70.7426 -70.7315 -70.7267 -70.7195 -70.6995 -70.6995 -70.6902
   -40.8676 -40.8524 -40.8508 -40.8352 -37.0818 -37.0111 -36.9999 -36.9321
   -36.8703 -36.8619 -36.8579 -36.8195 -36.7870 -36.7824 -36.7775 -36.7635
   -36.7624 -36.7461 -36.7461 -36.7448 -36.7249 -36.7008 -36.6957 -36.6566
   -36.6427 -36.6318 -36.6277 -36.6276 -17.1996 -17.1920 -17.1768 -17.1761
   -17.1405 -17.0967 -17.0740 -17.0260 -16.9972 -16.9865 -16.9733 -16.9716
    10.4815  11.0619  11.9974  12.1838  12.3527  12.6467  12.8048  12.8778
    13.0155  13.1963  13.6208  13.6451  13.7043  13.8998  13.9580  13.9645
    13.9847  14.0204  14.1165  14.2841  14.3317  14.3882  14.3914  14.4045
    14.4440  14.4818  14.4997  14.5408  14.5430  14.5588  14.6848  14.7421
    14.7733  15.0592  15.7519  16.0522  16.0681  16.1193  16.1485  16.2207
    16.2493  16.2910  16.3048  16.5638  16.6437  16.8294  16.9054  16.9574
    17.0317  17.0592  17.1281  17.1486  17.4123  17.5382  17.5622  17.6729
    17.8527  18.2041

          k = 0.0000-0.5774 0.1030 ( 15534 PWs)   bands (ev):

   -70.7658 -70.7450 -70.7315 -70.7289 -70.7149 -70.6995 -70.6995 -70.6914
   -40.8671 -40.8560 -40.8473 -40.8358 -37.0795 -37.0281 -36.9817 -36.9330
   -36.8716 -36.8555 -36.8553 -36.8221 -36.8049 -36.7891 -36.7771 -36.7635
   -36.7624 -36.7578 -36.7357 -36.7292 -36.7250 -36.6930 -36.6916 -36.6599
   -36.6463 -36.6312 -36.6308 -36.6278 -17.1977 -17.1910 -17.1773 -17.1773
   -17.1403 -17.1049 -17.0659 -17.0274 -16.9958 -16.9855 -16.9748 -16.9726
    10.5379  11.1039  11.7536  12.0843  12.5537  12.6618  12.7921  12.8775
    13.0505  13.2028  13.5847  13.6416  13.6974  13.9352  13.9554  13.9776
    14.0032  14.0034  14.0828  14.2107  14.2858  14.3650  14.3992  14.4130
    14.4246  14.4425  14.4912  14.5175  14.6499  14.6695  14.6818  14.7601
    14.8797  15.1272  15.7526  15.9753  16.0017  16.0918  16.1145  16.1394
    16.2070  16.2103  16.4863  16.6367  16.6871  16.7118  16.8023  16.8622
    16.9909  17.1625  17.1945  17.2783  17.3385  17.5001  17.7089  17.7417
    17.8447  18.1932

          k = 0.0000-0.5774 0.2061 ( 15496 PWs)   bands (ev):

   -70.7624 -70.7509 -70.7314 -70.7305 -70.7074 -70.6995 -70.6995 -70.6949
   -40.8656 -40.8598 -40.8433 -40.8374 -37.0728 -37.0467 -36.9607 -36.9367
   -36.8679 -36.8490 -36.8420 -36.8318 -36.8296 -36.8063 -36.7756 -36.7670
   -36.7628 -36.7624 -36.7296 -36.7256 -36.7055 -36.6808 -36.6758 -36.6695
   -36.6552 -36.6414 -36.6294 -36.6280 -17.1925 -17.1882 -17.1803 -17.1800
   -17.1374 -17.1181 -17.0529 -17.0323 -16.9916 -16.9826 -16.9792 -16.9752
    10.7014  11.1577  11.4808  11.8446  12.6631  12.7542  12.8056  12.9003
    13.1515  13.2507  13.4794  13.4854  13.7821  13.9336  13.9338  13.9522
    13.9753  14.0219  14.1257  14.1578  14.2930  14.3780  14.3854  14.3872
    14.4259  14.4519  14.4548  14.5027  14.6427  14.6628  14.8020  14.8045
    15.1677  15.3324  15.7291  15.7880  15.8803  15.9384  15.9895  16.0527
    16.2076  16.2296  16.5818  16.5862  16.7082  16.7490  16.8135  16.8178
    16.8349  17.1793  17.2703  17.3390  17.4740  17.4929  17.7822  17.8890
    17.8911  18.0871

          k = 0.0000-0.5774-0.3091 ( 15528 PWs)   bands (ev):

   -70.7572 -70.7572 -70.7311 -70.7311 -70.7005 -70.7005 -70.6995 -70.6995
   -40.8631 -40.8631 -40.8399 -40.8399 -37.0618 -37.0618 -36.9451 -36.9451
   -36.8545 -36.8545 -36.8395 -36.8395 -36.8251 -36.8251 -36.7726 -36.7726
   -36.7625 -36.7625 -36.7268 -36.7268 -36.6850 -36.6850 -36.6674 -36.6674
   -36.6571 -36.6571 -36.6285 -36.6285 -17.1858 -17.1858 -17.1843 -17.1843
   -17.1298 -17.1298 -17.0411 -17.0411 -16.9854 -16.9854 -16.9788 -16.9788
    10.9488  10.9488  11.5851  11.5851  12.7057  12.7057  12.9054  12.9054
    13.3053  13.3053  13.3505  13.3505  13.8708  13.8708  13.9307  13.9307
    13.9573  13.9573  14.2028  14.2028  14.3524  14.3524  14.3769  14.3769
    14.4070  14.4070  14.4823  14.4823  14.6454  14.6454  14.8360  14.8360
    15.5012  15.5012  15.5839  15.5839  15.8341  15.8341  15.9634  15.9634
    16.2287  16.2287  16.6279  16.6279  16.6605  16.6605  16.8187  16.8187
    16.9914  16.9914  17.3375  17.3375  17.6566  17.6566  17.6800  17.6800
    18.0464  18.0464

          k = 0.1667 0.2887 0.0000 ( 15488 PWs)   bands (ev):

   -70.7754 -70.7523 -70.7267 -70.7213 -70.7097 -70.6995 -70.6995 -70.6919
   -40.8755 -40.8608 -40.8424 -40.8269 -37.1297 -37.0609 -37.0040 -36.8951
   -36.8896 -36.8659 -36.8587 -36.8501 -36.8262 -36.7870 -36.7826 -36.7619
   -36.7471 -36.7452 -36.7450 -36.7047 -36.6839 -36.6552 -36.6497 -36.6494
   -36.6440 -36.6408 -36.6390 -36.6333 -17.1957 -17.1886 -17.1728 -17.1684
   -17.1472 -17.1144 -17.0561 -17.0182 -17.0054 -16.9905 -16.9760 -16.9755
     9.3924  11.2219  11.9116  12.2302  12.5139  12.5400  12.6037  12.8667
    12.9987  13.0174  13.3714  13.5190  13.5802  13.6502  13.7145  13.9107
    13.9484  14.1612  14.2131  14.2928  14.3377  14.4142  14.4370  14.4423
    14.5255  14.5856  14.6304  14.7860  14.9219  15.0301  15.1386  15.2907
    15.3371  15.4894  15.7588  15.8326  15.9357  16.0817  16.1786  16.2301
    16.2349  16.3210  16.5251  16.5476  16.5906  16.6574  16.7656  16.9189
    16.9450  17.0940  17.2227  17.2831  17.2954  17.3077  17.7393  17.7864
    17.7939  17.8690

          k = 0.1667 0.2887 0.1030 ( 15495 PWs)   bands (ev):

   -70.7743 -70.7548 -70.7255 -70.7214 -70.7084 -70.6995 -70.6995 -70.6930
   -40.8749 -40.8625 -40.8406 -40.8276 -37.1271 -37.0716 -36.9900 -36.9003
   -36.8882 -36.8605 -36.8578 -36.8494 -36.8240 -36.8183 -36.7790 -36.7700
   -36.7517 -36.7306 -36.7247 -36.7034 -36.6817 -36.6572 -36.6539 -36.6481
   -36.6454 -36.6413 -36.6389 -36.6358 -17.1940 -17.1876 -17.1739 -17.1701
   -17.1456 -17.1175 -17.0531 -17.0215 -17.0021 -16.9895 -16.9776 -16.9764
     9.4633  10.9175  12.1514  12.2318  12.5118  12.5264  12.5830  12.9791
    12.9930  13.0324  13.3231  13.4663  13.6117  13.6553  13.7269  13.9186
    13.9433  14.0886  14.1798  14.2408  14.3494  14.3778  14.4729  14.4817
    14.5879  14.6235  14.7293  14.8441  14.8987  15.0152  15.1726  15.2748
    15.3113  15.4995  15.7384  15.7727  15.8980  16.0420  16.1500  16.1822
    16.1976  16.3107  16.4159  16.6146  16.6295  16.7089  16.7377  16.9116
    16.9815  17.1459  17.2346  17.2840  17.3281  17.3409  17.6135  17.7595
    17.8279  17.9296

          k = 0.1667 0.2887 0.2061 ( 15507 PWs)   bands (ev):

   -70.7711 -70.7603 -70.7236 -70.7217 -70.7049 -70.6995 -70.6995 -70.6959
   -40.8729 -40.8661 -40.8369 -40.8297 -37.1194 -37.0901 -36.9625 -36.9131
   -36.8833 -36.8562 -36.8559 -36.8480 -36.8414 -36.8172 -36.8021 -36.7888
   -36.7310 -36.7194 -36.7039 -36.6963 -36.6745 -36.6641 -36.6621 -36.6501
   -36.6476 -36.6452 -36.6387 -36.6382 -17.1891 -17.1849 -17.1769 -17.1751
   -17.1409 -17.1249 -17.0458 -17.0285 -16.9955 -16.9866 -16.9818 -16.9790
     9.6721  10.4391  12.2436  12.3353  12.4745  12.5510  12.7072  12.9678
    13.0622  13.1417  13.2279  13.3672  13.6553  13.6702  13.7321  13.8978
    13.9708  14.0189  14.1278  14.1463  14.3258  14.4173  14.5561  14.5770
    14.6545  14.6581  14.8649  14.8683  14.9491  14.9893  15.1422  15.2432
    15.3548  15.5383  15.6609  15.7629  15.8365  15.9141  15.9707  16.0166
    16.1887  16.2956  16.4903  16.6067  16.6642  16.6854  16.7278  16.8496
    17.0943  17.2277  17.2643  17.3169  17.3728  17.4423  17.5396  17.6769
    17.7848  17.9390

          k = 0.1667 0.2887-0.3091 ( 15492 PWs)   bands (ev):

   -70.7662 -70.7662 -70.7223 -70.7223 -70.7002 -70.7002 -70.6995 -70.6995
   -40.8699 -40.8699 -40.8329 -40.8329 -37.1068 -37.1068 -36.9343 -36.9343
   -36.8722 -36.8722 -36.8540 -36.8540 -36.8236 -36.8236 -36.8053 -36.8053
   -36.7206 -36.7206 -36.6894 -36.6894 -36.6709 -36.6709 -36.6619 -36.6619
   -36.6469 -36.6469 -36.6386 -36.6386 -17.1827 -17.1827 -17.1804 -17.1804
   -17.1335 -17.1335 -17.0370 -17.0370 -16.9883 -16.9883 -16.9826 -16.9826
    10.0058  10.0058  12.2802  12.2802  12.5484  12.5484  12.8652  12.8652
    13.1294  13.1294  13.2723  13.2723  13.6669  13.6669  13.7942  13.7942
    14.0110  14.0110  14.1171  14.1171  14.3733  14.3733  14.6169  14.6169
    14.6667  14.6667  14.9164  14.9164  14.9559  14.9559  15.1531  15.1531
    15.5089  15.5089  15.7510  15.7510  15.7705  15.7705  15.8887  15.8887
    16.2476  16.2476  16.5684  16.5684  16.6664  16.6664  16.7618  16.7618
    17.2102  17.2102  17.2827  17.2827  17.4689  17.4689  17.5910  17.5910
    17.8123  17.8123

          k = 0.1667 0.4811 0.0000 ( 15511 PWs)   bands (ev):

   -70.7669 -70.7425 -70.7315 -70.7267 -70.7195 -70.6995 -70.6995 -70.6902
   -40.8675 -40.8524 -40.8509 -40.8353 -37.0770 -37.0079 -36.9999 -36.9345
   -36.8895 -36.8688 -36.8605 -36.8105 -36.7874 -36.7840 -36.7767 -36.7650
   -36.7633 -36.7502 -36.7489 -36.7389 -36.6985 -36.6932 -36.6797 -36.6533
   -36.6459 -36.6455 -36.6447 -36.6279 -17.1992 -17.1937 -17.1806 -17.1776
   -17.1320 -17.0899 -17.0792 -17.0341 -16.9960 -16.9831 -16.9776 -16.9674
    10.2869  11.5123  11.9162  12.3084  12.3246  12.6049  12.6529  12.8367
    12.8804  13.1328  13.6519  13.7018  13.7645  13.8271  13.8408  13.9090
    13.9108  14.0356  14.1876  14.2042  14.2349  14.3124  14.4064  14.4172
    14.4863  14.5006  14.5281  14.5487  14.6179  14.7075  14.8342  14.8523
    14.9845  15.1272  15.6563  15.7826  15.9413  15.9527  16.0821  16.1502
    16.3904  16.4235  16.4564  16.6026  16.6772  16.7224  16.8236  16.9510
    17.1273  17.1279  17.2056  17.2233  17.3221  17.4607  17.7239  17.7899
    17.9207  18.0271

          k = 0.1667 0.4811 0.1030 ( 15506 PWs)   bands (ev):

   -70.7658 -70.7450 -70.7315 -70.7289 -70.7149 -70.6995 -70.6995 -70.6914
   -40.8670 -40.8559 -40.8473 -40.8358 -37.0749 -37.0251 -36.9820 -36.9360
   -36.8874 -36.8643 -36.8580 -36.8139 -36.8044 -36.7896 -36.7805 -36.7734
   -36.7585 -36.7534 -36.7322 -36.7283 -36.6946 -36.6909 -36.6783 -36.6568
   -36.6491 -36.6456 -36.6436 -36.6312 -17.1979 -17.1922 -17.1819 -17.1776
   -17.1323 -17.1008 -17.0685 -17.0345 -16.9954 -16.9820 -16.9790 -16.9684
    10.3481  11.4676  11.7417  12.2507  12.5423  12.5546  12.6672  12.8195
    12.9600  13.1600  13.5944  13.6514  13.7844  13.8101  13.8867  13.9011
    13.9555  14.0407  14.0895  14.1544  14.2502  14.2683  14.3632  14.4405
    14.4539  14.5103  14.5387  14.5867  14.6471  14.7933  14.8528  14.9193
    15.0248  15.1647  15.6511  15.7502  15.8440  15.9776  16.0677  16.1133
    16.2616  16.3405  16.5649  16.6117  16.6878  16.6983  16.8390  16.9740
    17.0831  17.1393  17.1960  17.2754  17.3336  17.4473  17.6582  17.9024
    17.9561  18.0039

          k = 0.1667 0.4811 0.2061 ( 15510 PWs)   bands (ev):

   -70.7624 -70.7509 -70.7314 -70.7305 -70.7074 -70.6995 -70.6995 -70.6949
   -40.8655 -40.8598 -40.8433 -40.8374 -37.0684 -37.0431 -36.9629 -36.9406
   -36.8786 -36.8537 -36.8514 -36.8337 -36.8205 -36.8075 -36.7811 -36.7778
   -36.7568 -36.7551 -36.7150 -36.7114 -36.6914 -36.6785 -36.6727 -36.6659
   -36.6563 -36.6472 -36.6431 -36.6390 -17.1944 -17.1882 -17.1851 -17.1787
   -17.1312 -17.1145 -17.0551 -17.0372 -16.9929 -16.9830 -16.9789 -16.9711
    10.5272  11.1619  11.7639  12.1149  12.5330  12.6295  12.7743  12.8285
    13.1152  13.2299  13.4689  13.5167  13.8061  13.8404  13.8887  13.9158
    13.9626  14.0304  14.0511  14.1289  14.2151  14.2790  14.3363  14.3704
    14.4271  14.4815  14.5487  14.6034  14.7217  14.8403  14.9589  14.9908
    15.2109  15.3180  15.6258  15.6506  15.7143  15.8660  16.0127  16.0748
    16.1424  16.2318  16.5892  16.6390  16.6702  16.7458  16.8633  16.9800
    17.0598  17.1384  17.2401  17.2920  17.3298  17.4770  17.6753  17.8308
    17.9738  18.1272

          k = 0.1667 0.4811-0.3091 ( 15512 PWs)   bands (ev):

   -70.7572 -70.7572 -70.7311 -70.7311 -70.7005 -70.7005 -70.6995 -70.6995
   -40.8631 -40.8631 -40.8400 -40.8400 -37.0577 -37.0577 -36.9491 -36.9491
   -36.8604 -36.8604 -36.8455 -36.8455 -36.8224 -36.8224 -36.7801 -36.7801
   -36.7560 -36.7560 -36.7071 -36.7071 -36.6800 -36.6800 -36.6673 -36.6673
   -36.6577 -36.6577 -36.6425 -36.6425 -17.1898 -17.1898 -17.1827 -17.1827
   -17.1253 -17.1253 -17.0442 -17.0442 -16.9883 -16.9883 -16.9750 -16.9750
    10.8092  10.8092  11.9239  11.9239  12.5861  12.5861  12.8294  12.8294
    13.2937  13.2937  13.3691  13.3691  13.8369  13.8369  13.8813  13.8813
    14.0051  14.0051  14.0864  14.0864  14.2454  14.2454  14.3604  14.3604
    14.4260  14.4260  14.5654  14.5654  14.7968  14.7968  15.0276  15.0276
    15.4253  15.4253  15.5725  15.5725  15.6833  15.6833  15.9963  15.9963
    16.1689  16.1689  16.6240  16.6240  16.7094  16.7094  16.9219  16.9219
    17.0972  17.0972  17.2713  17.2713  17.4323  17.4323  17.7497  17.7497
    18.0026  18.0026

          k = 0.3333 0.5774 0.0000 ( 15498 PWs)   bands (ev):

   -70.7629 -70.7361 -70.7361 -70.7267 -70.7261 -70.6995 -70.6995 -70.6898
   -40.8593 -40.8593 -40.8438 -40.8438 -37.0418 -36.9984 -36.9678 -36.9678
   -36.9205 -36.8658 -36.8658 -36.7887 -36.7887 -36.7780 -36.7780 -36.7697
   -36.7611 -36.7611 -36.7565 -36.6954 -36.6954 -36.6940 -36.6802 -36.6802
   -36.6728 -36.6492 -36.6492 -36.6266 -17.2034 -17.1871 -17.1871 -17.1858
   -17.1059 -17.1059 -17.0610 -17.0610 -16.9861 -16.9861 -16.9786 -16.9629
    10.8824  11.6227  11.6227  12.3706  12.4066  12.6310  12.6310  12.7345
    12.7345  13.0879  13.7836  13.7836  13.8577  13.8577  13.9720  13.9720
    13.9746  13.9777  14.0168  14.0168  14.1082  14.2106  14.2563  14.2563
    14.5166  14.5166  14.5288  14.5855  14.5855  14.8861  14.8861  14.9432
    14.9787  15.0587  15.6617  15.7044  15.7044  15.7459  15.7459  16.0390
    16.5539  16.5539  16.5743  16.5743  16.7895  16.7895  16.9451  16.9451
    16.9705  17.1395  17.3136  17.3851  17.3851  17.4006  17.7709  17.7709
    17.8198  17.9666

          k = 0.3333 0.5774 0.1030 ( 15495 PWs)   bands (ev):

   -70.7616 -70.7360 -70.7360 -70.7359 -70.7169 -70.6995 -70.6995 -70.6910
   -40.8593 -40.8593 -40.8438 -40.8438 -37.0400 -37.0038 -36.9680 -36.9680
   -36.9114 -36.8628 -36.8628 -36.7959 -36.7936 -36.7936 -36.7858 -36.7858
   -36.7516 -36.7516 -36.7339 -36.6945 -36.6928 -36.6928 -36.6798 -36.6798
   -36.6709 -36.6518 -36.6518 -36.6299 -17.2023 -17.1871 -17.1859 -17.1859
   -17.1096 -17.1096 -17.0576 -17.0576 -16.9870 -16.9870 -16.9775 -16.9639
    10.9330  11.6636  11.6636  11.9947  12.5129  12.5129  12.7848  12.8049
    12.8049  13.1219  13.7469  13.7469  13.8403  13.9081  13.9081  13.9264
    13.9607  13.9607  14.0195  14.0195  14.1472  14.1877  14.1938  14.1938
    14.4645  14.4645  14.5637  14.7224  14.7224  14.8819  14.8921  14.8921
    15.0745  15.1419  15.6177  15.6177  15.6324  15.8295  15.8295  15.9795
    16.3958  16.3958  16.6315  16.6315  16.7989  16.7989  16.9611  16.9934
    16.9934  17.1686  17.2194  17.3742  17.3742  17.4104  17.7663  17.7663
    17.9611  17.9611

          k = 0.3333 0.5774 0.2061 ( 15513 PWs)   bands (ev):

   -70.7580 -70.7447 -70.7361 -70.7361 -70.7081 -70.6995 -70.6995 -70.6947
   -40.8594 -40.8594 -40.8437 -40.8437 -37.0347 -37.0150 -36.9684 -36.9684
   -36.8892 -36.8548 -36.8548 -36.8286 -36.8103 -36.8103 -36.7869 -36.7869
   -36.7425 -36.7425 -36.7130 -36.6965 -36.6870 -36.6870 -36.6774 -36.6774
   -36.6642 -36.6589 -36.6589 -36.6391 -17.1992 -17.1904 -17.1833 -17.1833
   -17.1163 -17.1163 -17.0516 -17.0516 -16.9888 -16.9888 -16.9745 -16.9666
    11.0816  11.6304  11.7691  11.7691  12.3338  12.3338  12.8639  12.8639
    13.1509  13.2195  13.6295  13.7133  13.7133  13.7756  13.9030  13.9030
    13.9378  13.9378  14.0787  14.0787  14.1482  14.1522  14.1587  14.1587
    14.4178  14.4178  14.6434  14.7509  14.7509  14.8112  15.0473  15.0473
    15.2237  15.3333  15.4988  15.4988  15.5531  15.8209  15.9100  15.9100
    16.2264  16.2264  16.6364  16.6364  16.8111  16.8111  16.9566  17.0746
    17.0746  17.0775  17.2500  17.3355  17.3355  17.3997  17.7761  17.7761
    17.9196  17.9196

          k = 0.3333 0.5774-0.3091 ( 15564 PWs)   bands (ev):

   -70.7522 -70.7522 -70.7361 -70.7361 -70.7005 -70.7005 -70.6995 -70.6995
   -40.8595 -40.8595 -40.8436 -40.8436 -37.0261 -37.0261 -36.9686 -36.9686
   -36.8605 -36.8605 -36.8485 -36.8485 -36.8200 -36.8200 -36.7871 -36.7871
   -36.7395 -36.7395 -36.7015 -36.7015 -36.6846 -36.6846 -36.6690 -36.6690
   -36.6689 -36.6689 -36.6522 -36.6522 -17.1949 -17.1949 -17.1819 -17.1819
   -17.1195 -17.1195 -17.0488 -17.0488 -16.9898 -16.9898 -16.9705 -16.9705
    11.3192  11.3192  11.8489  11.8489  12.2273  12.2273  12.8829  12.8829
    13.3424  13.3424  13.5597  13.5597  13.7000  13.7000  13.8813  13.8813
    13.9276  13.9276  14.1245  14.1245  14.1394  14.1394  14.1651  14.1651
    14.3900  14.3900  14.7284  14.7284  14.7309  14.7309  15.1911  15.1911
    15.3756  15.3756  15.3973  15.3973  15.6106  15.6106  15.9410  15.9410
    16.1583  16.1583  16.6343  16.6343  16.8160  16.8160  16.9895  16.9895
    17.1184  17.1184  17.3027  17.3027  17.3386  17.3386  17.7866  17.7866
    17.8921  17.8921

     the Fermi energy is    16.1670 ev

!    total energy              =   -3111.34645521 Ry
     estimated scf accuracy    <          5.2E-10 Ry
     smearing contrib. (-TS)   =       0.00009767 Ry
     internal energy E=F+TS    =   -3111.34655287 Ry

     The total energy is F=E-TS. E is the sum of the following terms:
     one-electron contribution =   -1208.35842490 Ry
     hartree contribution      =     698.27116809 Ry
     xc contribution           =    -349.40436008 Ry
     ewald contribution        =   -1642.60130586 Ry
     one-center paw contrib.   =    -609.25363013 Ry

     convergence has been achieved in  28 iterations

     negative rho (up, down):  3.202E-03 0.000E+00

     Forces acting on atoms (cartesian axes, Ry/au):

     atom    1 type  1   force =    -0.01339260    0.00773222    0.00000000
     atom    2 type  1   force =     0.01339260   -0.00773222    0.00000000
     atom    3 type  1   force =     0.00000000    0.01546444    0.00000000
     atom    4 type  1   force =     0.01339260    0.00773222    0.00000000
     atom    5 type  1   force =     0.00000000   -0.01546444    0.00000000
     atom    6 type  1   force =    -0.01339260   -0.00773222    0.00000000
     atom    7 type  1   force =     0.00000000    0.00000000    0.00000000
     atom    8 type  1   force =     0.00000000    0.00000000    0.00000000
     atom    9 type  2   force =     0.00000000   -0.00000000   -0.01102341
     atom   10 type  2   force =     0.00000000    0.00000000   -0.01102341
     atom   11 type  2   force =    -0.00000000   -0.00000000    0.01102341
     atom   12 type  2   force =    -0.00000000   -0.00000000    0.01102341

     Total force =     0.043829     Total SCF correction =     0.000052


     Computing stress (Cartesian axis) and pressure


     negative rho (up, down):  3.202E-03 0.000E+00
          total   stress  (Ry/bohr**3)                   (kbar)     P=     -151.67
  -0.00111626   0.00000000   0.00000000         -164.21        0.00        0.00
   0.00000000  -0.00111626   0.00000000            0.00     -164.21        0.00
   0.00000000   0.00000000  -0.00086048            0.00        0.00     -126.58


     Writing all to output data dir ./FeAl.save/ :
     XML data file, charge density, pseudopotentials, collected wavefunctions

     init_run     :      4.49s CPU      4.60s WALL (       1 calls)
     electrons    :    221.43s CPU    227.13s WALL (       1 calls)
     forces       :      1.02s CPU      1.05s WALL (       1 calls)
     stress       :      4.00s CPU      4.07s WALL (       1 calls)

     Called by init_run:
     wfcinit      :      3.02s CPU      3.08s WALL (       1 calls)
     potinit      :      0.57s CPU      0.60s WALL (       1 calls)
     hinit0       :      0.66s CPU      0.67s WALL (       1 calls)

     Called by electrons:
     c_bands      :    190.34s CPU    194.40s WALL (      28 calls)
     sum_band     :     23.54s CPU     24.35s WALL (      28 calls)
     v_of_rho     :      0.51s CPU      0.55s WALL (      29 calls)
     newd         :      2.04s CPU      2.46s WALL (      29 calls)
     PAW_pot      :      5.08s CPU      5.35s WALL (      29 calls)
     mix_rho      :      0.10s CPU      0.10s WALL (      28 calls)

     Called by c_bands:
     init_us_2    :      2.09s CPU      2.12s WALL (    1652 calls)
     cegterg      :    183.67s CPU    187.51s WALL (     784 calls)

     Called by *egterg:
     cdiaghg      :     35.58s CPU     35.87s WALL (    2907 calls)
     h_psi        :    100.58s CPU    102.91s WALL (    2935 calls)
     s_psi        :      8.99s CPU      9.15s WALL (    2935 calls)
     g_psi        :      0.43s CPU      0.43s WALL (    2123 calls)

     Called by h_psi:
     h_psi:calbec :     13.61s CPU     13.73s WALL (    2935 calls)
     vloc_psi     :     77.33s CPU     79.07s WALL (    2935 calls)
     add_vuspsi   :      8.97s CPU      9.04s WALL (    2935 calls)

     General routines
     calbec       :     21.21s CPU     21.39s WALL (    4195 calls)
     fft          :      0.91s CPU      0.96s WALL (     400 calls)
     ffts         :      0.40s CPU      0.41s WALL (      57 calls)
     fftw         :     77.94s CPU     79.55s WALL (  513000 calls)
     interpolate  :      0.42s CPU      0.43s WALL (      29 calls)

     Parallel routines

     PWSCF        :    231.61s CPU    245.85s WALL


   This run was terminated on:  16:23:24  27Oct2025            

=------------------------------------------------------------------------------=
   JOB DONE.
=------------------------------------------------------------------------------=
Note: The following floating-point exceptions are signalling: IEEE_UNDERFLOW_FLAG IEEE_DENORMAL
Note: The following floating-point exceptions are signalling: IEEE_UNDERFLOW_FLAG IEEE_DENORMAL
Note: The following floating-point exceptions are signalling: IEEE_UNDERFLOW_FLAG IEEE_DENORMAL
Note: The following floating-point exceptions are signalling: IEEE_UNDERFLOW_FLAG IEEE_DENORMAL
Note: The following floating-point exceptions are signalling: IEEE_UNDERFLOW_FLAG IEEE_DENORMAL
Note: The following floating-point exceptions are signalling: IEEE_UNDERFLOW_FLAG IEEE_DENORMAL
Note: The following floating-point exceptions are signalling: IEEE_UNDERFLOW_FLAG IEEE_DENORMAL
Note: The following floating-point exceptions are signalling: IEEE_UNDERFLOW_FLAG IEEE_DENORMAL
Note: The following floating-point exceptions are signalling: IEEE_UNDERFLOW_FLAG IEEE_DENORMAL
Note: The following floating-point exceptions are signalling: IEEE_UNDERFLOW_FLAG IEEE_DENORMAL
Note: The following floating-point exceptions are signalling: IEEE_UNDERFLOW_FLAG IEEE_DENORMAL
Note: The following floating-point exceptions are signalling: IEEE_UNDERFLOW_FLAG IEEE_DENORMAL
Note: The following floating-point exceptions are signalling: IEEE_UNDERFLOW_FLAG IEEE_DENORMAL
Note: The following floating-point exceptions are signalling: IEEE_UNDERFLOW_FLAG IEEE_DENORMAL
Note: The following floating-point exceptions are signalling: IEEE_UNDERFLOW_FLAG IEEE_DENORMAL
Note: The following floating-point exceptions are signalling: IEEE_UNDERFLOW_FLAG IEEE_DENORMAL
