
     Program PWSCF v.7.4 starts on 27Oct2025 at 16:15:18 

     This program is part of the open-source Quantum ESPRESSO suite
     for quantum simulation of materials; please cite
         "P. Giannozzi et al., J. Phys.:Condens. Matter 21 395502 (2009);
         "P. Giannozzi et al., J. Phys.:Condens. Matter 29 465901 (2017);
         "P. Giannozzi et al., J. Chem. Phys. 152 154105 (2020);
          URL http://www.quantum-espresso.org", 
     in publications or presentations arising from this work. More details at
     http://www.quantum-espresso.org/quote

     Parallel version (MPI & OpenMP), running on      16 processor cores
     Number of MPI processes:                16
     Threads/MPI process:                     1

     MPI processes distributed on     1 nodes
     226905 MiB available memory on the printing compute node when the environment starts

     Reading input from TiFe2_ecutrho_convergence/TiFe2_factor5.in

     Current dimensions of program PWSCF are:
     Max number of different atomic species (ntypx) = 10
     Max number of k-points (npk) =  40000
     Max angular momentum in pseudopotentials (lmaxx) =  4
     file Fe.pbe-spn-kjpaw_psl.0.2.1.UPF: wavefunction(s)  3D renormalized

     IMPORTANT: XC functional enforced from input :
     Exchange-correlation= PBE
                           (   1   4   3   4   0   0   0)
     Any further DFT definition will be discarded
     Please, verify this is what you really want

     Message from routine setup:
     using ibrav=0 with symmetry is DISCOURAGED, use correct ibrav instead

     R & G space division:  proc/nbgrp/npool/nimage =      16
     Subspace diagonalization in iterative solution of the eigenvalue problem:
     a serial algorithm will be used


     Parallelization info
     --------------------
     sticks:   dense  smooth     PW     G-vecs:    dense   smooth      PW
     Min         161     129     36                10827     7763    1138
     Max         162     131     37                10836     7768    1143
     Sum        2587    2077    583               173339   124229   18233

     Using Slab Decomposition



     bravais-lattice index     =            0
     lattice parameter (alat)  =       9.1568  a.u.
     unit-cell volume          =    1075.5644 (a.u.)^3
     number of atoms/cell      =           12
     number of atomic types    =            2
     number of electrons       =       176.00
     number of Kohn-Sham states=          106
     kinetic-energy cutoff     =      90.0000  Ry
     charge density cutoff     =     450.0000  Ry
     scf convergence threshold =      1.0E-08
     mixing beta               =       0.7000
     number of iterations used =            8  plain     mixing
     Exchange-correlation= PBE
                           (   1   4   3   4   0   0   0)

     celldm(1)=   9.156781  celldm(2)=   0.000000  celldm(3)=   0.000000
     celldm(4)=   0.000000  celldm(5)=   0.000000  celldm(6)=   0.000000

     crystal axes: (cart. coord. in units of alat)
               a(1) = (   1.000000   0.000000   0.000000 )  
               a(2) = (  -0.500000   0.866025   0.000000 )  
               a(3) = (   0.000000   0.000000   1.617623 )  

     reciprocal axes: (cart. coord. in units 2 pi/alat)
               b(1) = (  1.000000  0.577350 -0.000000 )  
               b(2) = (  0.000000  1.154701  0.000000 )  
               b(3) = (  0.000000 -0.000000  0.618191 )  


     PseudoPot. # 1 for Fe read from file:
     ./Fe.pbe-spn-kjpaw_psl.0.2.1.UPF
     MD5 check sum: e86618425769142926afa95317d90200
     Pseudo is Projector augmented-wave + core cor, Zval = 16.0
     Generated using "atomic" code by A. Dal Corso  v.5.0.99 svn rev. 10869
     Shape of augmentation charge: PSQ
     Using radial grid of 1191 points,  6 beta functions with: 
                l(1) =   0
                l(2) =   0
                l(3) =   1
                l(4) =   1
                l(5) =   2
                l(6) =   2
     Q(r) pseudized with 0 coefficients 


     PseudoPot. # 2 for Ti read from file:
     ./Ti_pbe_v1.4.uspp.F.UPF
     MD5 check sum: 88a00a6731bd790ddea75d31a80cb452
     Pseudo is Ultrasoft + core correction, Zval = 12.0
     Generated by new atomic code, or converted to UPF format
     Using radial grid of  851 points,  6 beta functions with: 
                l(1) =   0
                l(2) =   0
                l(3) =   1
                l(4) =   1
                l(5) =   2
                l(6) =   2
     Q(r) pseudized with  6 coefficients,  rinner =    1.000   1.000   1.000
                                                       1.000   1.000

     atomic species   valence    mass     pseudopotential
     Fe               16.00    55.84500     Fe( 1.00)
     Ti               12.00    47.86700     Ti( 1.00)

     24 Sym. Ops., with inversion, found (12 have fractional translation)



   Cartesian axes

     site n.     atom                  positions (alat units)
         1        Fe     tau(   1) = (   0.7465670   0.1463196   0.4044057  )
         2        Fe     tau(   2) = (  -0.2465670   0.7197058   1.2132171  )
         3        Fe     tau(   3) = (  -0.0000000   0.2926392   1.2132171  )
         4        Fe     tau(   4) = (   0.2534330   0.1463196   0.4044057  )
         5        Fe     tau(   5) = (   0.5000000   0.5733862   0.4044057  )
         6        Fe     tau(   6) = (   0.2465670   0.7197058   1.2132171  )
         7        Fe     tau(   7) = (   0.0000000   0.0000000   0.0000000  )
         8        Fe     tau(   8) = (   0.0000000   0.0000000   0.8088114  )
         9        Ti     tau(   9) = (   0.5000000   0.2886751   1.5200090  )
        10        Ti     tau(  10) = (  -0.0000000   0.5773503   0.7111976  )
        11        Ti     tau(  11) = (  -0.0000000   0.5773503   0.0976138  )
        12        Ti     tau(  12) = (   0.5000000   0.2886751   0.9064252  )

     number of k points=    28  Marzari-Vanderbilt smearing, width (Ry)=  0.0050
                       cart. coord. in units 2pi/alat
        k(    1) = (   0.0000000   0.0000000   0.0000000), wk =   0.0092593
        k(    2) = (   0.0000000   0.0000000   0.1030318), wk =   0.0185185
        k(    3) = (   0.0000000   0.0000000   0.2060637), wk =   0.0185185
        k(    4) = (   0.0000000   0.0000000  -0.3090955), wk =   0.0092593
        k(    5) = (   0.0000000   0.1924501   0.0000000), wk =   0.0555556
        k(    6) = (   0.0000000   0.1924501   0.1030318), wk =   0.1111111
        k(    7) = (   0.0000000   0.1924501   0.2060637), wk =   0.1111111
        k(    8) = (   0.0000000   0.1924501  -0.3090955), wk =   0.0555556
        k(    9) = (   0.0000000   0.3849002   0.0000000), wk =   0.0555556
        k(   10) = (   0.0000000   0.3849002   0.1030318), wk =   0.1111111
        k(   11) = (   0.0000000   0.3849002   0.2060637), wk =   0.1111111
        k(   12) = (   0.0000000   0.3849002  -0.3090955), wk =   0.0555556
        k(   13) = (   0.0000000  -0.5773503   0.0000000), wk =   0.0277778
        k(   14) = (   0.0000000  -0.5773503   0.1030318), wk =   0.0555556
        k(   15) = (   0.0000000  -0.5773503   0.2060637), wk =   0.0555556
        k(   16) = (   0.0000000  -0.5773503  -0.3090955), wk =   0.0277778
        k(   17) = (   0.1666667   0.2886751   0.0000000), wk =   0.0555556
        k(   18) = (   0.1666667   0.2886751   0.1030318), wk =   0.1111111
        k(   19) = (   0.1666667   0.2886751   0.2060637), wk =   0.1111111
        k(   20) = (   0.1666667   0.2886751  -0.3090955), wk =   0.0555556
        k(   21) = (   0.1666667   0.4811252   0.0000000), wk =   0.1111111
        k(   22) = (   0.1666667   0.4811252   0.1030318), wk =   0.2222222
        k(   23) = (   0.1666667   0.4811252   0.2060637), wk =   0.2222222
        k(   24) = (   0.1666667   0.4811252  -0.3090955), wk =   0.1111111
        k(   25) = (   0.3333333   0.5773503   0.0000000), wk =   0.0185185
        k(   26) = (   0.3333333   0.5773503   0.1030318), wk =   0.0370370
        k(   27) = (   0.3333333   0.5773503   0.2060637), wk =   0.0370370
        k(   28) = (   0.3333333   0.5773503  -0.3090955), wk =   0.0185185

     Dense  grid:   173339 G-vectors     FFT dimensions: (  64,  64, 108)

     Smooth grid:   124229 G-vectors     FFT dimensions: (  60,  60,  90)

     Estimated max dynamical RAM per process >      93.31 MB

     Estimated total dynamical RAM >       1.46 GB

     Check: negative core charge=   -0.000064

     Initial potential from superposition of free atoms

     starting charge     171.9963, renormalised to     176.0000

     negative rho (up, down):  6.677E-03 0.000E+00
     Starting wfcs are  144 randomized atomic wfcs
     Checking if some PAW data can be deallocated... 

     total cpu time spent up to now is        4.3 secs

     per-process dynamical memory:   173.8 Mb

     Self-consistent Calculation

     iteration #  1     ecut=    90.00 Ry     beta= 0.70
     Davidson diagonalization with overlap
     ethr =  1.00E-02,  avg # of iterations =  2.0

     negative rho (up, down):  8.846E-04 0.000E+00

     total cpu time spent up to now is       11.7 secs

     total energy              =   -3017.03075242 Ry
     estimated scf accuracy    <     116.54653233 Ry

     iteration #  2     ecut=    90.00 Ry     beta= 0.70
     Davidson diagonalization with overlap
     ethr =  1.00E-02,  avg # of iterations =  6.7

     total cpu time spent up to now is       27.1 secs

     total energy              =   -3075.97192433 Ry
     estimated scf accuracy    <     699.74347634 Ry

     iteration #  3     ecut=    90.00 Ry     beta= 0.70
     Davidson diagonalization with overlap
     ethr =  1.00E-02,  avg # of iterations =  5.2

     total cpu time spent up to now is       39.0 secs

     total energy              =   -3120.92555696 Ry
     estimated scf accuracy    <      91.50531231 Ry

     iteration #  4     ecut=    90.00 Ry     beta= 0.70
     Davidson diagonalization with overlap
     ethr =  1.00E-02,  avg # of iterations =  1.2

     total cpu time spent up to now is       45.0 secs

     total energy              =   -3116.48595179 Ry
     estimated scf accuracy    <      54.40560342 Ry

     iteration #  5     ecut=    90.00 Ry     beta= 0.70
     Davidson diagonalization with overlap
     ethr =  1.00E-02,  avg # of iterations =  1.7

     total cpu time spent up to now is       51.2 secs

     total energy              =   -3115.18176935 Ry
     estimated scf accuracy    <      41.78329531 Ry

     iteration #  6     ecut=    90.00 Ry     beta= 0.70
     Davidson diagonalization with overlap
     ethr =  1.00E-02,  avg # of iterations =  1.0

     total cpu time spent up to now is       57.0 secs

     total energy              =   -3113.67047845 Ry
     estimated scf accuracy    <      26.00963568 Ry

     iteration #  7     ecut=    90.00 Ry     beta= 0.70
     Davidson diagonalization with overlap
     ethr =  1.00E-02,  avg # of iterations =  1.0

     negative rho (up, down):  1.364E-03 0.000E+00

     total cpu time spent up to now is       62.8 secs

     total energy              =   -3111.34263725 Ry
     estimated scf accuracy    <      18.34509426 Ry

     iteration #  8     ecut=    90.00 Ry     beta= 0.70
     Davidson diagonalization with overlap
     ethr =  1.00E-02,  avg # of iterations =  1.0

     negative rho (up, down):  2.066E-03 0.000E+00

     total cpu time spent up to now is       68.6 secs

     total energy              =   -3111.48389943 Ry
     estimated scf accuracy    <       6.17543459 Ry

     iteration #  9     ecut=    90.00 Ry     beta= 0.70
     Davidson diagonalization with overlap
     ethr =  3.51E-03,  avg # of iterations =  1.8

     negative rho (up, down):  3.249E-03 0.000E+00

     total cpu time spent up to now is       74.9 secs

     total energy              =   -3111.23564652 Ry
     estimated scf accuracy    <       4.39266260 Ry

     iteration # 10     ecut=    90.00 Ry     beta= 0.70
     Davidson diagonalization with overlap
     ethr =  2.50E-03,  avg # of iterations =  2.2

     negative rho (up, down):  6.102E-03 0.000E+00

     total cpu time spent up to now is       81.5 secs

     total energy              =   -3110.91968013 Ry
     estimated scf accuracy    <       1.49221583 Ry

     iteration # 11     ecut=    90.00 Ry     beta= 0.70
     Davidson diagonalization with overlap
     ethr =  8.48E-04,  avg # of iterations =  5.1

     negative rho (up, down):  4.966E-03 0.000E+00

     total cpu time spent up to now is       91.9 secs

     total energy              =   -3111.28724443 Ry
     estimated scf accuracy    <       7.11494469 Ry

     iteration # 12     ecut=    90.00 Ry     beta= 0.70
     Davidson diagonalization with overlap
     ethr =  8.48E-04,  avg # of iterations =  1.2

     negative rho (up, down):  2.948E-03 0.000E+00

     total cpu time spent up to now is       97.8 secs

     total energy              =   -3111.10314859 Ry
     estimated scf accuracy    <       1.48256699 Ry

     iteration # 13     ecut=    90.00 Ry     beta= 0.70
     Davidson diagonalization with overlap
     ethr =  8.42E-04,  avg # of iterations =  3.3

     negative rho (up, down):  3.755E-03 0.000E+00

     total cpu time spent up to now is      105.4 secs

     total energy              =   -3111.40003931 Ry
     estimated scf accuracy    <       1.34443198 Ry

     iteration # 14     ecut=    90.00 Ry     beta= 0.70
     Davidson diagonalization with overlap
     ethr =  7.64E-04,  avg # of iterations =  1.0

     negative rho (up, down):  4.264E-03 0.000E+00

     total cpu time spent up to now is      111.2 secs

     total energy              =   -3111.33479308 Ry
     estimated scf accuracy    <       0.86964861 Ry

     iteration # 15     ecut=    90.00 Ry     beta= 0.70
     Davidson diagonalization with overlap
     ethr =  4.94E-04,  avg # of iterations =  1.2

     negative rho (up, down):  4.352E-03 0.000E+00

     total cpu time spent up to now is      117.1 secs

     total energy              =   -3111.34996485 Ry
     estimated scf accuracy    <       0.13600025 Ry

     iteration # 16     ecut=    90.00 Ry     beta= 0.70
     Davidson diagonalization with overlap
     ethr =  7.73E-05,  avg # of iterations =  1.7

     negative rho (up, down):  4.388E-03 0.000E+00

     total cpu time spent up to now is      123.3 secs

     total energy              =   -3111.35089247 Ry
     estimated scf accuracy    <       0.06977876 Ry

     iteration # 17     ecut=    90.00 Ry     beta= 0.70
     Davidson diagonalization with overlap
     ethr =  3.96E-05,  avg # of iterations =  2.2

     negative rho (up, down):  4.514E-03 0.000E+00

     total cpu time spent up to now is      129.6 secs

     total energy              =   -3111.34663910 Ry
     estimated scf accuracy    <       0.07046414 Ry

     iteration # 18     ecut=    90.00 Ry     beta= 0.70
     Davidson diagonalization with overlap
     ethr =  3.96E-05,  avg # of iterations =  1.7

     negative rho (up, down):  4.633E-03 0.000E+00

     total cpu time spent up to now is      135.6 secs

     total energy              =   -3111.34551508 Ry
     estimated scf accuracy    <       0.02086824 Ry

     iteration # 19     ecut=    90.00 Ry     beta= 0.70
     Davidson diagonalization with overlap
     ethr =  1.19E-05,  avg # of iterations =  6.1

     negative rho (up, down):  4.634E-03 0.000E+00

     total cpu time spent up to now is      143.9 secs

     total energy              =   -3111.34716533 Ry
     estimated scf accuracy    <       0.00001357 Ry

     iteration # 20     ecut=    90.00 Ry     beta= 0.70
     Davidson diagonalization with overlap
     ethr =  7.71E-09,  avg # of iterations = 12.2

     negative rho (up, down):  4.641E-03 0.000E+00

     total cpu time spent up to now is      170.7 secs

     total energy              =   -3111.34745298 Ry
     estimated scf accuracy    <       0.00007371 Ry

     iteration # 21     ecut=    90.00 Ry     beta= 0.70
     Davidson diagonalization with overlap
     ethr =  7.71E-09,  avg # of iterations =  1.2

     negative rho (up, down):  4.642E-03 0.000E+00

     total cpu time spent up to now is      176.6 secs

     total energy              =   -3111.34745245 Ry
     estimated scf accuracy    <       0.00003837 Ry

     iteration # 22     ecut=    90.00 Ry     beta= 0.70
     Davidson diagonalization with overlap
     ethr =  7.71E-09,  avg # of iterations =  1.1

     negative rho (up, down):  4.647E-03 0.000E+00

     total cpu time spent up to now is      182.5 secs

     total energy              =   -3111.34745435 Ry
     estimated scf accuracy    <       0.00000992 Ry

     iteration # 23     ecut=    90.00 Ry     beta= 0.70
     Davidson diagonalization with overlap
     ethr =  5.63E-09,  avg # of iterations =  1.0

     negative rho (up, down):  4.644E-03 0.000E+00

     total cpu time spent up to now is      188.2 secs

     total energy              =   -3111.34745148 Ry
     estimated scf accuracy    <       0.00004347 Ry

     iteration # 24     ecut=    90.00 Ry     beta= 0.70
     Davidson diagonalization with overlap
     ethr =  5.63E-09,  avg # of iterations =  1.5

     negative rho (up, down):  4.643E-03 0.000E+00

     total cpu time spent up to now is      194.3 secs

     total energy              =   -3111.34745202 Ry
     estimated scf accuracy    <       0.00000448 Ry

     iteration # 25     ecut=    90.00 Ry     beta= 0.70
     Davidson diagonalization with overlap
     ethr =  2.54E-09,  avg # of iterations =  3.1

     negative rho (up, down):  4.643E-03 0.000E+00

     total cpu time spent up to now is      201.5 secs

     total energy              =   -3111.34745253 Ry
     estimated scf accuracy    <       0.00000014 Ry

     iteration # 26     ecut=    90.00 Ry     beta= 0.70
     Davidson diagonalization with overlap
     ethr =  7.86E-11,  avg # of iterations =  5.3

     negative rho (up, down):  4.643E-03 0.000E+00

     total cpu time spent up to now is      212.9 secs

     total energy              =   -3111.34745258 Ry
     estimated scf accuracy    <       0.00000055 Ry

     iteration # 27     ecut=    90.00 Ry     beta= 0.70
     Davidson diagonalization with overlap
     ethr =  7.86E-11,  avg # of iterations =  1.4

     negative rho (up, down):  4.643E-03 0.000E+00

     total cpu time spent up to now is      218.9 secs

     total energy              =   -3111.34745257 Ry
     estimated scf accuracy    <       0.00000014 Ry

     iteration # 28     ecut=    90.00 Ry     beta= 0.70
     Davidson diagonalization with overlap
     ethr =  7.86E-11,  avg # of iterations =  2.3

     negative rho (up, down):  4.643E-03 0.000E+00

     total cpu time spent up to now is      225.6 secs

     End of self-consistent calculation

          k = 0.0000 0.0000 0.0000 ( 15507 PWs)   bands (ev):

   -70.7841 -70.7615 -70.7257 -70.7029 -70.6985 -70.6985 -70.6985 -70.6985
   -40.8830 -40.8688 -40.8336 -40.8182 -37.1892 -37.1194 -37.0103 -36.8914
   -36.8914 -36.8713 -36.8713 -36.8574 -36.8574 -36.7981 -36.7867 -36.7459
   -36.7459 -36.7431 -36.7431 -36.6447 -36.6425 -36.6425 -36.6414 -36.6414
   -36.6327 -36.6327 -36.6198 -36.6197 -17.1751 -17.1751 -17.1611 -17.1611
   -17.1597 -17.1581 -17.0192 -17.0162 -17.0018 -17.0018 -16.9872 -16.9872
     8.6184  10.6485  11.4221  12.0194  12.5094  12.6099  12.7690  12.7690
    12.9893  12.9893  13.1997  13.2943  13.3859  13.3859  13.8277  13.8277
    13.9660  13.9660  14.2080  14.2946  14.2946  14.3197  14.3197  14.7767
    14.7767  14.9090  15.3898  15.3898  15.5089  15.5089  15.8283  15.9123
    15.9123  15.9151  15.9151  16.0616  16.0643  16.0643  16.0718  16.1331
    16.1602  16.1602  16.2316  16.2773  16.2773  16.7296  16.7296  16.7457
    16.9886  16.9886  17.2877  17.2877  17.4914  17.4914  17.5145  17.5148
    17.7867  17.7867

          k = 0.0000 0.0000 0.1030 ( 15471 PWs)   bands (ev):

   -70.7830 -70.7638 -70.7234 -70.7040 -70.6985 -70.6985 -70.6985 -70.6985
   -40.8823 -40.8702 -40.8322 -40.8190 -37.1862 -37.1280 -36.9969 -36.8909
   -36.8909 -36.8760 -36.8760 -36.8497 -36.8497 -36.8366 -36.7695 -36.7695
   -36.7511 -36.7198 -36.7198 -36.6496 -36.6496 -36.6494 -36.6375 -36.6375
   -36.6328 -36.6328 -36.6198 -36.6197 -17.1742 -17.1742 -17.1621 -17.1621
   -17.1594 -17.1579 -17.0192 -17.0166 -17.0008 -17.0008 -16.9881 -16.9881
     8.6952  10.2985  11.7134  12.0200  12.4086  12.7823  12.7823  12.7997
    12.9715  12.9715  13.0478  13.3958  13.4125  13.4125  13.8046  13.8046
    13.9487  13.9487  14.1837  14.1837  14.2749  14.4637  14.4637  14.8325
    14.8325  14.9437  15.3161  15.3161  15.4206  15.4206  15.7048  15.8488
    15.9288  15.9288  16.0206  16.0206  16.0561  16.0561  16.0759  16.1289
    16.1648  16.1648  16.2170  16.2170  16.3680  16.7979  16.7979  16.9628
    16.9791  16.9791  17.2798  17.2798  17.4939  17.4939  17.5146  17.5148
    17.7701  17.7701

          k = 0.0000 0.0000 0.2061 ( 15471 PWs)   bands (ev):

   -70.7798 -70.7691 -70.7180 -70.7072 -70.6985 -70.6985 -70.6985 -70.6985
   -40.8802 -40.8734 -40.8287 -40.8213 -37.1774 -37.1457 -36.9653 -36.8893
   -36.8893 -36.8820 -36.8820 -36.8814 -36.8345 -36.8345 -36.7935 -36.7935
   -36.7151 -36.6970 -36.6970 -36.6631 -36.6612 -36.6612 -36.6350 -36.6350
   -36.6331 -36.6331 -36.6198 -36.6198 -17.1718 -17.1718 -17.1648 -17.1648
   -17.1586 -17.1578 -17.0192 -17.0177 -16.9979 -16.9979 -16.9907 -16.9907
     8.9217   9.7629  11.9828  12.0217  12.4588  12.8191  12.8191  12.8591
    12.9269  12.9269  13.0619  13.4129  13.4855  13.4855  13.7126  13.7126
    13.9592  13.9592  14.0868  14.0868  14.5003  14.6545  14.6545  14.9414
    14.9414  15.0289  15.1529  15.1529  15.2783  15.2783  15.4664  15.4917
    15.9610  15.9610  16.0262  16.0262  16.0817  16.0817  16.0870  16.1176
    16.1202  16.1202  16.3273  16.3273  16.6107  16.8007  16.8007  17.0145
    17.0145  17.2419  17.2419  17.3941  17.5146  17.5445  17.5445  17.5630
    17.7193  17.7193

          k = 0.0000 0.0000-0.3091 ( 15500 PWs)   bands (ev):

   -70.7749 -70.7749 -70.7122 -70.7122 -70.6985 -70.6985 -70.6985 -70.6985
   -40.8770 -40.8770 -40.8248 -40.8248 -37.1635 -37.1635 -36.9253 -36.9253
   -36.8864 -36.8864 -36.8864 -36.8864 -36.8156 -36.8156 -36.8156 -36.8156
   -36.6853 -36.6853 -36.6772 -36.6772 -36.6772 -36.6772 -36.6337 -36.6337
   -36.6337 -36.6337 -36.6198 -36.6198 -17.1683 -17.1683 -17.1683 -17.1683
   -17.1579 -17.1579 -17.0187 -17.0187 -16.9942 -16.9942 -16.9942 -16.9942
     9.2858   9.2858  12.0233  12.0233  12.6655  12.6655  12.8713  12.8713
    12.8713  12.8713  13.2885  13.2885  13.5917  13.5917  13.5917  13.5917
    14.0108  14.0108  14.0108  14.0108  14.8639  14.8639  14.8639  14.8639
    14.8727  14.8727  15.1488  15.1488  15.1488  15.1488  15.3173  15.3173
    16.0015  16.0015  16.0015  16.0015  16.0682  16.0682  16.0682  16.0682
    16.1023  16.1023  16.5883  16.5883  16.5883  16.5883  16.9839  16.9839
    17.1493  17.1493  17.1493  17.1493  17.5147  17.5147  17.6367  17.6367
    17.6367  17.6367

          k = 0.0000 0.1925 0.0000 ( 15506 PWs)   bands (ev):

   -70.7806 -70.7579 -70.7257 -70.7112 -70.7021 -70.6985 -70.6985 -70.6937
   -40.8803 -40.8659 -40.8366 -40.8212 -37.1676 -37.0980 -37.0077 -36.8903
   -36.8777 -36.8767 -36.8614 -36.8575 -36.8561 -36.7914 -36.7867 -36.7530
   -36.7458 -36.7439 -36.7433 -36.6592 -36.6539 -36.6501 -36.6457 -36.6425
   -36.6411 -36.6396 -36.6266 -36.6252 -17.1895 -17.1795 -17.1650 -17.1619
   -17.1568 -17.1371 -17.0354 -17.0120 -17.0071 -16.9977 -16.9830 -16.9795
     8.8843  10.8514  11.6003  12.1309  12.5493  12.6045  12.7146  12.8111
    12.9008  13.1535  13.1570  13.3966  13.4402  13.4684  13.7826  13.8809
    13.9665  14.0695  14.2450  14.2831  14.2956  14.3209  14.3670  14.6307
    14.6990  14.7111  15.0245  15.2180  15.2244  15.2794  15.4970  15.5677
    15.7640  15.8575  15.8802  15.9582  16.0035  16.0690  16.1149  16.1935
    16.2181  16.3010  16.3277  16.3565  16.4913  16.6275  16.8021  16.8957
    16.9060  17.0135  17.2900  17.3011  17.3352  17.5245  17.5432  17.5481
    17.5777  17.9180

          k = 0.0000 0.1925 0.1030 ( 15503 PWs)   bands (ev):

   -70.7795 -70.7602 -70.7236 -70.7116 -70.7018 -70.6985 -70.6985 -70.6945
   -40.8796 -40.8673 -40.8351 -40.8220 -37.1647 -37.1072 -36.9943 -36.8899
   -36.8826 -36.8773 -36.8648 -36.8534 -36.8457 -36.8289 -36.7737 -36.7689
   -36.7507 -36.7244 -36.7205 -36.6607 -36.6550 -36.6539 -36.6472 -36.6424
   -36.6420 -36.6411 -36.6264 -36.6253 -17.1880 -17.1786 -17.1661 -17.1653
   -17.1538 -17.1381 -17.0345 -17.0161 -17.0027 -16.9966 -16.9839 -16.9808
     8.9593  10.5157  11.8763  12.1319  12.4547  12.6575  12.7815  12.8302
    12.9367  13.1227  13.1316  13.3679  13.4712  13.5015  13.7771  13.8660
    13.9375  14.0358  14.1369  14.2182  14.3257  14.4437  14.5021  14.6911
    14.7332  14.7602  15.0257  15.1658  15.1832  15.2542  15.5070  15.5560
    15.6800  15.8075  15.8584  15.9277  16.0074  16.0375  16.1198  16.1698
    16.2040  16.2909  16.3056  16.3995  16.4990  16.6850  16.7882  16.9076
    16.9606  17.0952  17.2837  17.3229  17.3349  17.4698  17.5460  17.5723
    17.6248  17.8937

          k = 0.0000 0.1925 0.2061 ( 15491 PWs)   bands (ev):

   -70.7763 -70.7656 -70.7193 -70.7128 -70.7007 -70.6985 -70.6985 -70.6964
   -40.8775 -40.8707 -40.8316 -40.8242 -37.1563 -37.1253 -36.9638 -36.8983
   -36.8860 -36.8761 -36.8703 -36.8636 -36.8381 -36.8312 -36.7973 -36.7921
   -36.7178 -36.7042 -36.6982 -36.6663 -36.6640 -36.6619 -36.6492 -36.6471
   -36.6415 -36.6411 -36.6260 -36.6254 -17.1838 -17.1761 -17.1713 -17.1688
   -17.1493 -17.1407 -17.0316 -17.0218 -16.9964 -16.9938 -16.9865 -16.9845
     9.1802   9.9980  12.1191  12.1394  12.4831  12.6844  12.8042  12.8839
    13.0265  13.0494  13.1142  13.3680  13.5196  13.5514  13.7017  13.7869
    13.9483  14.0180  14.0593  14.1259  14.4505  14.6550  14.6748  14.7863
    14.8349  14.8405  14.9914  15.0779  15.0961  15.1739  15.3501  15.4357
    15.6718  15.8069  15.8570  15.8940  15.9202  16.0236  16.0556  16.0962
    16.1997  16.2949  16.3282  16.5051  16.5581  16.6871  16.7352  16.8216
    17.0750  17.2456  17.2654  17.3442  17.3934  17.5128  17.5393  17.6171
    17.6231  17.8243

          k = 0.0000 0.1925-0.3091 ( 15474 PWs)   bands (ev):

   -70.7714 -70.7714 -70.7154 -70.7154 -70.6988 -70.6988 -70.6985 -70.6985
   -40.8744 -40.8744 -40.8276 -40.8276 -37.1428 -37.1428 -36.9279 -36.9279
   -36.8804 -36.8804 -36.8739 -36.8739 -36.8191 -36.8191 -36.8132 -36.8132
   -36.6967 -36.6967 -36.6790 -36.6790 -36.6716 -36.6716 -36.6491 -36.6491
   -36.6412 -36.6412 -36.6256 -36.6256 -17.1778 -17.1778 -17.1725 -17.1725
   -17.1447 -17.1447 -17.0272 -17.0272 -16.9901 -16.9901 -16.9900 -16.9900
     9.5346   9.5346  12.1428  12.1428  12.6265  12.6265  12.8930  12.8930
    12.9624  12.9624  13.2871  13.2871  13.5874  13.5874  13.6641  13.6641
    14.0014  14.0014  14.0569  14.0569  14.6728  14.6728  14.8193  14.8193
    14.8848  14.8848  14.9555  14.9555  15.0954  15.0954  15.2752  15.2752
    15.7862  15.7862  15.8461  15.8461  15.9253  15.9253  16.0543  16.0543
    16.2485  16.2485  16.4875  16.4875  16.6498  16.6498  16.6865  16.6865
    17.1774  17.1774  17.3497  17.3497  17.4720  17.4720  17.5384  17.5384
    17.7230  17.7230

          k = 0.0000 0.3849 0.0000 ( 15504 PWs)   bands (ev):

   -70.7719 -70.7487 -70.7257 -70.7234 -70.7114 -70.6985 -70.6985 -70.6903
   -40.8732 -40.8583 -40.8444 -40.8288 -37.1155 -37.0469 -37.0024 -36.9058
   -36.8752 -36.8676 -36.8576 -36.8435 -36.8154 -36.7869 -36.7820 -36.7633
   -36.7473 -36.7458 -36.7442 -36.7149 -36.6870 -36.6863 -36.6729 -36.6526
   -36.6425 -36.6311 -36.6309 -36.6272 -17.1982 -17.1878 -17.1724 -17.1709
   -17.1467 -17.1094 -17.0610 -17.0188 -17.0026 -16.9899 -16.9751 -16.9736
     9.6328  11.3557  12.0195  12.0474  12.4032  12.5950  12.6510  12.9362
    13.0026  13.0738  13.5555  13.5703  13.5911  13.6374  13.7331  13.9216
    14.0027  14.1422  14.2446  14.2784  14.3264  14.3689  14.4110  14.4433
    14.4942  14.5408  14.5458  14.7694  14.7847  14.8848  14.9704  15.0734
    15.0979  15.3995  15.7134  15.9945  16.0850  16.1408  16.1490  16.1938
    16.2037  16.3325  16.4117  16.6270  16.6407  16.7404  16.7452  16.8451
    16.8555  17.0225  17.0268  17.3384  17.3934  17.6190  17.6756  17.6921
    17.7358  18.2600

          k = 0.0000 0.3849 0.1030 ( 15519 PWs)   bands (ev):

   -70.7708 -70.7512 -70.7251 -70.7234 -70.7095 -70.6985 -70.6985 -70.6914
   -40.8725 -40.8602 -40.8424 -40.8295 -37.1130 -37.0586 -36.9880 -36.9087
   -36.8777 -36.8595 -36.8562 -36.8440 -36.8142 -36.8139 -36.7834 -36.7657
   -36.7543 -36.7356 -36.7245 -36.7117 -36.6876 -36.6829 -36.6720 -36.6557
   -36.6457 -36.6346 -36.6301 -36.6273 -17.1964 -17.1868 -17.1735 -17.1724
   -17.1454 -17.1135 -17.0570 -17.0217 -16.9997 -16.9889 -16.9760 -16.9751
     9.7015  11.0878  11.9792  12.3217  12.3568  12.6119  12.6795  12.9396
    12.9654  13.1414  13.4634  13.4890  13.6572  13.7149  13.7401  13.9080
    13.9913  14.0986  14.2073  14.2738  14.2973  14.3029  14.3893  14.4843
    14.5476  14.5948  14.6572  14.7714  14.7963  14.9435  14.9707  15.0516
    15.1205  15.4184  15.7133  15.8938  16.0201  16.0606  16.1021  16.1555
    16.2139  16.3777  16.3912  16.6340  16.6485  16.7109  16.7311  16.8469
    16.8791  17.0680  17.1730  17.2893  17.3715  17.4876  17.6484  17.7188
    17.9664  18.1935

          k = 0.0000 0.3849 0.2061 ( 15519 PWs)   bands (ev):

   -70.7676 -70.7567 -70.7243 -70.7236 -70.7048 -70.6985 -70.6985 -70.6945
   -40.8706 -40.8639 -40.8386 -40.8315 -37.1056 -37.0772 -36.9617 -36.9183
   -36.8755 -36.8527 -36.8469 -36.8457 -36.8410 -36.8088 -36.8048 -36.7843
   -36.7382 -36.7287 -36.7071 -36.6979 -36.6898 -36.6729 -36.6689 -36.6648
   -36.6534 -36.6444 -36.6288 -36.6275 -17.1912 -17.1842 -17.1771 -17.1765
   -17.1407 -17.1227 -17.0479 -17.0286 -16.9933 -16.9860 -16.9796 -16.9786
     9.9033  10.6393  12.0321  12.2467  12.5909  12.6561  12.7451  12.8919
    13.0491  13.1967  13.3232  13.3707  13.7423  13.7520  13.8045  13.8943
    13.9407  14.0406  14.1782  14.1929  14.2409  14.3204  14.4502  14.5268
    14.5804  14.6204  14.7194  14.8451  14.8536  14.9653  14.9966  15.0489
    15.2567  15.5001  15.6961  15.7642  15.8561  15.9319  15.9508  16.0065
    16.2572  16.3517  16.4409  16.6248  16.6824  16.7010  16.7096  16.8479
    16.9471  17.1321  17.1697  17.3079  17.3802  17.5172  17.6422  17.8156
    17.9862  18.0881

          k = 0.0000 0.3849-0.3091 ( 15504 PWs)   bands (ev):

   -70.7626 -70.7626 -70.7238 -70.7238 -70.6993 -70.6993 -70.6985 -70.6985
   -40.8677 -40.8677 -40.8347 -40.8347 -37.0935 -37.0935 -36.9364 -36.9364
   -36.8649 -36.8649 -36.8487 -36.8487 -36.8257 -36.8257 -36.7990 -36.7990
   -36.7304 -36.7304 -36.6954 -36.6954 -36.6797 -36.6797 -36.6623 -36.6623
   -36.6584 -36.6584 -36.6280 -36.6280 -17.1841 -17.1841 -17.1804 -17.1804
   -17.1326 -17.1326 -17.0378 -17.0378 -16.9861 -16.9861 -16.9822 -16.9822
    10.2249  10.2249  12.1277  12.1277  12.6762  12.6762  12.8351  12.8351
    13.1753  13.1753  13.2656  13.2656  13.7748  13.7748  13.8437  13.8437
    13.9795  13.9795  14.1943  14.1943  14.2491  14.2491  14.5089  14.5089
    14.6020  14.6020  14.7877  14.7877  14.9531  14.9531  15.0264  15.0264
    15.5128  15.5128  15.6594  15.6594  15.7963  15.7963  15.8967  15.8967
    16.3158  16.3158  16.5425  16.5425  16.6596  16.6596  16.7977  16.7977
    17.0506  17.0506  17.2134  17.2134  17.5386  17.5386  17.7513  17.7513
    17.9566  17.9566

          k = 0.0000-0.5774 0.0000 ( 15546 PWs)   bands (ev):

   -70.7659 -70.7416 -70.7305 -70.7257 -70.7186 -70.6985 -70.6985 -70.6892
   -40.8673 -40.8522 -40.8505 -40.8349 -37.0815 -37.0109 -36.9997 -36.9318
   -36.8701 -36.8617 -36.8577 -36.8193 -36.7868 -36.7822 -36.7773 -36.7633
   -36.7621 -36.7459 -36.7458 -36.7445 -36.7247 -36.7005 -36.6955 -36.6564
   -36.6425 -36.6316 -36.6275 -36.6274 -17.1994 -17.1917 -17.1765 -17.1759
   -17.1403 -17.0964 -17.0737 -17.0258 -16.9970 -16.9863 -16.9730 -16.9714
    10.4822  11.0625  11.9980  12.1843  12.3533  12.6472  12.8053  12.8783
    13.0160  13.1967  13.6212  13.6455  13.7048  13.9002  13.9584  13.9649
    13.9851  14.0209  14.1168  14.2845  14.3322  14.3886  14.3919  14.4049
    14.4444  14.4822  14.5001  14.5412  14.5434  14.5592  14.6852  14.7425
    14.7736  15.0596  15.7522  16.0526  16.0684  16.1197  16.1489  16.2210
    16.2496  16.2915  16.3051  16.5641  16.6440  16.8298  16.9057  16.9579
    17.0321  17.0596  17.1285  17.1490  17.4127  17.5386  17.5625  17.6733
    17.8530  18.2044

          k = 0.0000-0.5774 0.1030 ( 15534 PWs)   bands (ev):

   -70.7648 -70.7440 -70.7305 -70.7279 -70.7139 -70.6985 -70.6985 -70.6904
   -40.8668 -40.8557 -40.8470 -40.8355 -37.0793 -37.0278 -36.9815 -36.9328
   -36.8713 -36.8553 -36.8551 -36.8219 -36.8047 -36.7889 -36.7769 -36.7632
   -36.7622 -36.7576 -36.7355 -36.7289 -36.7248 -36.6928 -36.6914 -36.6597
   -36.6461 -36.6310 -36.6306 -36.6276 -17.1975 -17.1907 -17.1770 -17.1770
   -17.1400 -17.1047 -17.0656 -17.0272 -16.9956 -16.9852 -16.9746 -16.9723
    10.5386  11.1045  11.7542  12.0849  12.5542  12.6623  12.7926  12.8781
    13.0510  13.2032  13.5851  13.6420  13.6979  13.9356  13.9558  13.9780
    14.0037  14.0038  14.0832  14.2111  14.2862  14.3655  14.3996  14.4134
    14.4250  14.4430  14.4916  14.5180  14.6503  14.6700  14.6823  14.7605
    14.8801  15.1276  15.7529  15.9757  16.0021  16.0921  16.1149  16.1398
    16.2074  16.2107  16.4866  16.6370  16.6875  16.7122  16.8027  16.8625
    16.9913  17.1629  17.1949  17.2787  17.3388  17.5005  17.7093  17.7421
    17.8450  18.1934

          k = 0.0000-0.5774 0.2061 ( 15496 PWs)   bands (ev):

   -70.7614 -70.7498 -70.7304 -70.7295 -70.7064 -70.6985 -70.6985 -70.6939
   -40.8653 -40.8596 -40.8430 -40.8371 -37.0726 -37.0465 -36.9604 -36.9364
   -36.8677 -36.8488 -36.8418 -36.8315 -36.8293 -36.8061 -36.7754 -36.7668
   -36.7626 -36.7622 -36.7294 -36.7254 -36.7053 -36.6806 -36.6756 -36.6692
   -36.6550 -36.6412 -36.6292 -36.6278 -17.1923 -17.1880 -17.1801 -17.1798
   -17.1372 -17.1179 -17.0526 -17.0320 -16.9913 -16.9823 -16.9790 -16.9749
    10.7020  11.1583  11.4815  11.8452  12.6636  12.7547  12.8061  12.9007
    13.1520  13.2511  13.4798  13.4859  13.7826  13.9340  13.9342  13.9526
    13.9757  14.0223  14.1261  14.1583  14.2935  14.3784  14.3858  14.3877
    14.4263  14.4524  14.4552  14.5031  14.6431  14.6632  14.8024  14.8050
    15.1682  15.3328  15.7295  15.7884  15.8807  15.9388  15.9899  16.0531
    16.2080  16.2300  16.5822  16.5866  16.7087  16.7494  16.8139  16.8181
    16.8353  17.1796  17.2706  17.3393  17.4744  17.4933  17.7826  17.8894
    17.8914  18.0874

          k = 0.0000-0.5774-0.3091 ( 15528 PWs)   bands (ev):

   -70.7562 -70.7562 -70.7301 -70.7301 -70.6994 -70.6994 -70.6985 -70.6985
   -40.8628 -40.8628 -40.8397 -40.8397 -37.0616 -37.0616 -36.9449 -36.9449
   -36.8543 -36.8543 -36.8393 -36.8393 -36.8249 -36.8249 -36.7724 -36.7724
   -36.7623 -36.7623 -36.7266 -36.7266 -36.6847 -36.6847 -36.6672 -36.6672
   -36.6569 -36.6569 -36.6283 -36.6283 -17.1855 -17.1855 -17.1841 -17.1841
   -17.1296 -17.1296 -17.0408 -17.0408 -16.9852 -16.9852 -16.9786 -16.9786
    10.9495  10.9495  11.5857  11.5857  12.7061  12.7061  12.9059  12.9059
    13.3058  13.3058  13.3509  13.3509  13.8712  13.8712  13.9310  13.9310
    13.9577  13.9577  14.2033  14.2033  14.3529  14.3529  14.3774  14.3774
    14.4075  14.4075  14.4827  14.4827  14.6458  14.6458  14.8365  14.8365
    15.5016  15.5016  15.5844  15.5844  15.8344  15.8344  15.9637  15.9637
    16.2291  16.2291  16.6283  16.6283  16.6609  16.6609  16.8191  16.8191
    16.9917  16.9917  17.3378  17.3378  17.6570  17.6570  17.6804  17.6804
    18.0467  18.0467

          k = 0.1667 0.2887 0.0000 ( 15488 PWs)   bands (ev):

   -70.7744 -70.7513 -70.7257 -70.7203 -70.7087 -70.6985 -70.6985 -70.6909
   -40.8753 -40.8605 -40.8421 -40.8266 -37.1295 -37.0607 -37.0038 -36.8949
   -36.8894 -36.8656 -36.8584 -36.8499 -36.8260 -36.7868 -36.7824 -36.7616
   -36.7469 -36.7450 -36.7447 -36.7045 -36.6837 -36.6550 -36.6495 -36.6492
   -36.6438 -36.6406 -36.6387 -36.6331 -17.1955 -17.1884 -17.1725 -17.1682
   -17.1469 -17.1142 -17.0559 -17.0179 -17.0052 -16.9903 -16.9758 -16.9752
     9.3930  11.2225  11.9122  12.2307  12.5144  12.5405  12.6041  12.8672
    12.9992  13.0179  13.3719  13.5194  13.5806  13.6506  13.7149  13.9111
    13.9488  14.1616  14.2136  14.2932  14.3382  14.4146  14.4374  14.4427
    14.5259  14.5860  14.6308  14.7864  14.9224  15.0305  15.1390  15.2911
    15.3376  15.4898  15.7592  15.8330  15.9360  16.0820  16.1790  16.2305
    16.2353  16.3214  16.5255  16.5480  16.5910  16.6578  16.7660  16.9193
    16.9454  17.0944  17.2231  17.2835  17.2958  17.3080  17.7397  17.7868
    17.7942  17.8694

          k = 0.1667 0.2887 0.1030 ( 15495 PWs)   bands (ev):

   -70.7733 -70.7538 -70.7245 -70.7204 -70.7074 -70.6985 -70.6985 -70.6920
   -40.8746 -40.8622 -40.8404 -40.8273 -37.1269 -37.0714 -36.9898 -36.9001
   -36.8880 -36.8603 -36.8576 -36.8492 -36.8238 -36.8181 -36.7788 -36.7698
   -36.7515 -36.7304 -36.7245 -36.7032 -36.6815 -36.6570 -36.6537 -36.6479
   -36.6452 -36.6411 -36.6386 -36.6356 -17.1937 -17.1874 -17.1737 -17.1699
   -17.1454 -17.1173 -17.0529 -17.0213 -17.0018 -16.9892 -16.9773 -16.9762
     9.4640  10.9181  12.1520  12.2323  12.5123  12.5268  12.5835  12.9795
    12.9934  13.0329  13.3236  13.4667  13.6121  13.6557  13.7273  13.9190
    13.9437  14.0890  14.1802  14.2413  14.3499  14.3782  14.4733  14.4821
    14.5883  14.6239  14.7298  14.8446  14.8991  15.0157  15.1730  15.2753
    15.3117  15.4998  15.7388  15.7730  15.8984  16.0424  16.1504  16.1825
    16.1980  16.3111  16.4163  16.6150  16.6299  16.7093  16.7381  16.9120
    16.9818  17.1463  17.2350  17.2844  17.3285  17.3413  17.6139  17.7599
    17.8282  17.9299

          k = 0.1667 0.2887 0.2061 ( 15507 PWs)   bands (ev):

   -70.7701 -70.7593 -70.7226 -70.7207 -70.7039 -70.6985 -70.6985 -70.6949
   -40.8726 -40.8658 -40.8366 -40.8294 -37.1192 -37.0899 -36.9622 -36.9129
   -36.8831 -36.8560 -36.8557 -36.8478 -36.8411 -36.8170 -36.8019 -36.7886
   -36.7307 -36.7192 -36.7036 -36.6961 -36.6743 -36.6639 -36.6619 -36.6499
   -36.6473 -36.6450 -36.6385 -36.6380 -17.1888 -17.1847 -17.1766 -17.1748
   -17.1407 -17.1247 -17.0455 -17.0282 -16.9952 -16.9864 -16.9816 -16.9788
     9.6727  10.4397  12.2441  12.3358  12.4750  12.5515  12.7077  12.9683
    13.0627  13.1421  13.2284  13.3676  13.6557  13.6707  13.7326  13.8982
    13.9713  14.0193  14.1282  14.1467  14.3263  14.4177  14.5565  14.5775
    14.6549  14.6585  14.8653  14.8688  14.9495  14.9898  15.1426  15.2437
    15.3551  15.5386  15.6613  15.7632  15.8369  15.9145  15.9711  16.0170
    16.1890  16.2960  16.4907  16.6071  16.6646  16.6858  16.7282  16.8500
    17.0947  17.2280  17.2647  17.3173  17.3731  17.4426  17.5399  17.6773
    17.7851  17.9394

          k = 0.1667 0.2887-0.3091 ( 15492 PWs)   bands (ev):

   -70.7652 -70.7652 -70.7213 -70.7213 -70.6992 -70.6992 -70.6985 -70.6985
   -40.8696 -40.8696 -40.8326 -40.8326 -37.1066 -37.1066 -36.9341 -36.9341
   -36.8720 -36.8720 -36.8538 -36.8538 -36.8234 -36.8234 -36.8051 -36.8051
   -36.7204 -36.7204 -36.6891 -36.6891 -36.6707 -36.6707 -36.6617 -36.6617
   -36.6467 -36.6467 -36.6384 -36.6384 -17.1825 -17.1825 -17.1801 -17.1801
   -17.1332 -17.1332 -17.0367 -17.0367 -16.9881 -16.9881 -16.9824 -16.9824
    10.0065  10.0065  12.2807  12.2807  12.5489  12.5489  12.8656  12.8656
    13.1299  13.1299  13.2728  13.2728  13.6673  13.6673  13.7946  13.7946
    14.0114  14.0114  14.1175  14.1175  14.3737  14.3737  14.6173  14.6173
    14.6672  14.6672  14.9168  14.9168  14.9564  14.9564  15.1536  15.1536
    15.5092  15.5092  15.7513  15.7513  15.7709  15.7709  15.8890  15.8890
    16.2480  16.2480  16.5688  16.5688  16.6668  16.6668  16.7621  16.7621
    17.2106  17.2106  17.2831  17.2831  17.4693  17.4693  17.5914  17.5914
    17.8127  17.8127

          k = 0.1667 0.4811 0.0000 ( 15511 PWs)   bands (ev):

   -70.7659 -70.7416 -70.7305 -70.7257 -70.7185 -70.6985 -70.6985 -70.6892
   -40.8673 -40.8521 -40.8506 -40.8350 -37.0768 -37.0077 -36.9997 -36.9343
   -36.8893 -36.8686 -36.8602 -36.8103 -36.7872 -36.7838 -36.7765 -36.7648
   -36.7631 -36.7500 -36.7487 -36.7387 -36.6983 -36.6930 -36.6795 -36.6531
   -36.6457 -36.6453 -36.6445 -36.6277 -17.1990 -17.1934 -17.1803 -17.1773
   -17.1317 -17.0896 -17.0790 -17.0338 -16.9958 -16.9829 -16.9773 -16.9671
    10.2875  11.5129  11.9168  12.3090  12.3252  12.6054  12.6534  12.8372
    12.8809  13.1332  13.6523  13.7022  13.7650  13.8275  13.8412  13.9094
    13.9112  14.0360  14.1880  14.2046  14.2354  14.3129  14.4068  14.4176
    14.4867  14.5010  14.5285  14.5491  14.6184  14.7079  14.8346  14.8528
    14.9849  15.1276  15.6567  15.7830  15.9417  15.9531  16.0824  16.1505
    16.3908  16.4239  16.4567  16.6029  16.6776  16.7228  16.8240  16.9513
    17.1277  17.1283  17.2060  17.2237  17.3224  17.4611  17.7242  17.7902
    17.9210  18.0273

          k = 0.1667 0.4811 0.1030 ( 15506 PWs)   bands (ev):

   -70.7648 -70.7440 -70.7305 -70.7279 -70.7139 -70.6985 -70.6985 -70.6904
   -40.8668 -40.8557 -40.8470 -40.8356 -37.0746 -37.0249 -36.9817 -36.9358
   -36.8872 -36.8641 -36.8578 -36.8136 -36.8042 -36.7894 -36.7803 -36.7732
   -36.7583 -36.7532 -36.7320 -36.7281 -36.6944 -36.6907 -36.6781 -36.6566
   -36.6489 -36.6454 -36.6434 -36.6309 -17.1976 -17.1920 -17.1816 -17.1773
   -17.1320 -17.1006 -17.0682 -17.0343 -16.9952 -16.9818 -16.9788 -16.9681
    10.3487  11.4682  11.7423  12.2512  12.5428  12.5551  12.6677  12.8200
    12.9605  13.1604  13.5948  13.6519  13.7849  13.8105  13.8871  13.9015
    13.9559  14.0412  14.0900  14.1548  14.2507  14.2687  14.3636  14.4410
    14.4543  14.5107  14.5391  14.5871  14.6475  14.7938  14.8533  14.9197
    15.0252  15.1650  15.6515  15.7506  15.8444  15.9780  16.0680  16.1137
    16.2620  16.3409  16.5652  16.6121  16.6882  16.6987  16.8393  16.9743
    17.0835  17.1397  17.1964  17.2757  17.3340  17.4477  17.6585  17.9028
    17.9565  18.0042

          k = 0.1667 0.4811 0.2061 ( 15510 PWs)   bands (ev):

   -70.7614 -70.7499 -70.7304 -70.7295 -70.7064 -70.6985 -70.6985 -70.6939
   -40.8652 -40.8595 -40.8431 -40.8371 -37.0682 -37.0429 -36.9627 -36.9404
   -36.8784 -36.8535 -36.8512 -36.8335 -36.8203 -36.8073 -36.7809 -36.7776
   -36.7566 -36.7549 -36.7148 -36.7112 -36.6912 -36.6783 -36.6725 -36.6657
   -36.6561 -36.6470 -36.6429 -36.6388 -17.1941 -17.1880 -17.1849 -17.1785
   -17.1309 -17.1142 -17.0549 -17.0370 -16.9927 -16.9828 -16.9787 -16.9709
    10.5278  11.1625  11.7645  12.1154  12.5335  12.6300  12.7748  12.8290
    13.1157  13.2303  13.4693  13.5172  13.8065  13.8408  13.8891  13.9162
    13.9630  14.0308  14.0516  14.1294  14.2155  14.2794  14.3368  14.3708
    14.4276  14.4819  14.5492  14.6038  14.7221  14.8407  14.9593  14.9913
    15.2113  15.3183  15.6262  15.6510  15.7147  15.8663  16.0131  16.0752
    16.1428  16.2322  16.5896  16.6394  16.6705  16.7462  16.8637  16.9803
    17.0602  17.1387  17.2404  17.2924  17.3302  17.4773  17.6757  17.8311
    17.9741  18.1275

          k = 0.1667 0.4811-0.3091 ( 15512 PWs)   bands (ev):

   -70.7562 -70.7562 -70.7301 -70.7301 -70.6994 -70.6994 -70.6985 -70.6985
   -40.8628 -40.8628 -40.8397 -40.8397 -37.0575 -37.0575 -36.9489 -36.9489
   -36.8602 -36.8602 -36.8453 -36.8453 -36.8222 -36.8222 -36.7799 -36.7799
   -36.7558 -36.7558 -36.7069 -36.7069 -36.6798 -36.6798 -36.6671 -36.6671
   -36.6575 -36.6575 -36.6423 -36.6423 -17.1896 -17.1896 -17.1824 -17.1824
   -17.1250 -17.1250 -17.0440 -17.0440 -16.9880 -16.9880 -16.9747 -16.9747
    10.8098  10.8098  11.9245  11.9245  12.5866  12.5866  12.8299  12.8299
    13.2942  13.2942  13.3695  13.3695  13.8373  13.8373  13.8817  13.8817
    14.0055  14.0055  14.0869  14.0869  14.2458  14.2458  14.3608  14.3608
    14.4264  14.4264  14.5658  14.5658  14.7973  14.7973  15.0281  15.0281
    15.4257  15.4257  15.5729  15.5729  15.6837  15.6837  15.9967  15.9967
    16.1693  16.1693  16.6244  16.6244  16.7097  16.7097  16.9222  16.9222
    17.0976  17.0976  17.2717  17.2717  17.4327  17.4327  17.7500  17.7500
    18.0029  18.0030

          k = 0.3333 0.5774 0.0000 ( 15498 PWs)   bands (ev):

   -70.7619 -70.7351 -70.7351 -70.7257 -70.7251 -70.6985 -70.6985 -70.6888
   -40.8590 -40.8590 -40.8436 -40.8436 -37.0416 -36.9982 -36.9676 -36.9676
   -36.9203 -36.8656 -36.8656 -36.7885 -36.7885 -36.7778 -36.7778 -36.7695
   -36.7609 -36.7609 -36.7563 -36.6951 -36.6951 -36.6937 -36.6800 -36.6800
   -36.6726 -36.6490 -36.6490 -36.6264 -17.2031 -17.1868 -17.1868 -17.1856
   -17.1056 -17.1056 -17.0607 -17.0607 -16.9858 -16.9858 -16.9784 -16.9626
    10.8830  11.6233  11.6233  12.3712  12.4071  12.6315  12.6315  12.7350
    12.7350  13.0883  13.7840  13.7840  13.8581  13.8581  13.9725  13.9725
    13.9750  13.9781  14.0172  14.0172  14.1086  14.2111  14.2568  14.2568
    14.5170  14.5170  14.5292  14.5859  14.5859  14.8866  14.8866  14.9435
    14.9791  15.0591  15.6622  15.7048  15.7048  15.7463  15.7463  16.0393
    16.5543  16.5543  16.5747  16.5747  16.7900  16.7900  16.9454  16.9454
    16.9709  17.1398  17.3140  17.3855  17.3855  17.4009  17.7712  17.7712
    17.8201  17.9669

          k = 0.3333 0.5774 0.1030 ( 15495 PWs)   bands (ev):

   -70.7606 -70.7351 -70.7351 -70.7348 -70.7159 -70.6985 -70.6985 -70.6900
   -40.8591 -40.8591 -40.8435 -40.8435 -37.0398 -37.0036 -36.9678 -36.9678
   -36.9112 -36.8625 -36.8625 -36.7957 -36.7934 -36.7934 -36.7856 -36.7856
   -36.7514 -36.7514 -36.7337 -36.6943 -36.6926 -36.6926 -36.6796 -36.6796
   -36.6707 -36.6516 -36.6516 -36.6296 -17.2020 -17.1868 -17.1857 -17.1857
   -17.1094 -17.1094 -17.0573 -17.0573 -16.9867 -16.9867 -16.9772 -16.9636
    10.9336  11.6642  11.6642  11.9953  12.5134  12.5134  12.7853  12.8054
    12.8054  13.1223  13.7473  13.7473  13.8407  13.9085  13.9085  13.9269
    13.9611  13.9611  14.0200  14.0200  14.1476  14.1881  14.1943  14.1943
    14.4649  14.4649  14.5641  14.7228  14.7228  14.8823  14.8925  14.8925
    15.0749  15.1423  15.6181  15.6181  15.6328  15.8300  15.8300  15.9798
    16.3962  16.3962  16.6318  16.6318  16.7992  16.7992  16.9615  16.9938
    16.9938  17.1690  17.2198  17.3746  17.3746  17.4107  17.7666  17.7666
    17.9614  17.9614

          k = 0.3333 0.5774 0.2061 ( 15513 PWs)   bands (ev):

   -70.7570 -70.7436 -70.7351 -70.7351 -70.7071 -70.6985 -70.6985 -70.6937
   -40.8592 -40.8592 -40.8434 -40.8434 -37.0345 -37.0148 -36.9682 -36.9682
   -36.8890 -36.8545 -36.8545 -36.8284 -36.8101 -36.8101 -36.7867 -36.7867
   -36.7423 -36.7423 -36.7128 -36.6963 -36.6868 -36.6868 -36.6771 -36.6771
   -36.6640 -36.6587 -36.6587 -36.6389 -17.1989 -17.1902 -17.1831 -17.1831
   -17.1161 -17.1161 -17.0513 -17.0513 -16.9886 -16.9886 -16.9742 -16.9663
    11.0823  11.6310  11.7697  11.7697  12.3344  12.3344  12.8643  12.8643
    13.1514  13.2199  13.6299  13.7137  13.7137  13.7760  13.9035  13.9035
    13.9382  13.9382  14.0791  14.0791  14.1486  14.1526  14.1592  14.1592
    14.4183  14.4183  14.6438  14.7513  14.7513  14.8116  15.0477  15.0477
    15.2241  15.3336  15.4992  15.4992  15.5535  15.8212  15.9104  15.9104
    16.2268  16.2268  16.6368  16.6368  16.8115  16.8115  16.9570  17.0749
    17.0749  17.0779  17.2503  17.3359  17.3359  17.4001  17.7764  17.7764
    17.9199  17.9199

          k = 0.3333 0.5774-0.3091 ( 15564 PWs)   bands (ev):

   -70.7512 -70.7512 -70.7351 -70.7351 -70.6995 -70.6995 -70.6985 -70.6985
   -40.8592 -40.8592 -40.8434 -40.8434 -37.0259 -37.0259 -36.9684 -36.9684
   -36.8603 -36.8603 -36.8483 -36.8483 -36.8198 -36.8198 -36.7868 -36.7868
   -36.7393 -36.7393 -36.7012 -36.7012 -36.6844 -36.6844 -36.6688 -36.6688
   -36.6687 -36.6687 -36.6519 -36.6519 -17.1946 -17.1946 -17.1817 -17.1817
   -17.1193 -17.1193 -17.0485 -17.0485 -16.9896 -16.9896 -16.9702 -16.9702
    11.3198  11.3198  11.8495  11.8495  12.2280  12.2280  12.8833  12.8833
    13.3428  13.3428  13.5602  13.5602  13.7004  13.7004  13.8818  13.8818
    13.9280  13.9280  14.1249  14.1249  14.1398  14.1398  14.1656  14.1656
    14.3904  14.3904  14.7288  14.7288  14.7313  14.7313  15.1916  15.1916
    15.3760  15.3760  15.3977  15.3977  15.6110  15.6110  15.9414  15.9414
    16.1586  16.1586  16.6347  16.6347  16.8164  16.8164  16.9898  16.9898
    17.1188  17.1188  17.3030  17.3030  17.3389  17.3389  17.7869  17.7869
    17.8924  17.8925

     the Fermi energy is    16.1674 ev

!    total energy              =   -3111.34745258 Ry
     estimated scf accuracy    <          3.1E-10 Ry
     smearing contrib. (-TS)   =       0.00009766 Ry
     internal energy E=F+TS    =   -3111.34755024 Ry

     The total energy is F=E-TS. E is the sum of the following terms:
     one-electron contribution =   -1208.36323663 Ry
     hartree contribution      =     698.27651387 Ry
     xc contribution           =    -349.40593756 Ry
     ewald contribution        =   -1642.60130586 Ry
     one-center paw contrib.   =    -609.25358406 Ry

     convergence has been achieved in  28 iterations

     negative rho (up, down):  4.643E-03 0.000E+00

     Forces acting on atoms (cartesian axes, Ry/au):

     atom    1 type  1   force =    -0.01335541    0.00771075   -0.00000000
     atom    2 type  1   force =     0.01335541   -0.00771075    0.00000000
     atom    3 type  1   force =     0.00000000    0.01542150    0.00000000
     atom    4 type  1   force =     0.01335541    0.00771075    0.00000000
     atom    5 type  1   force =     0.00000000   -0.01542150    0.00000000
     atom    6 type  1   force =    -0.01335541   -0.00771075   -0.00000000
     atom    7 type  1   force =     0.00000000   -0.00000000    0.00000000
     atom    8 type  1   force =    -0.00000000   -0.00000000    0.00000000
     atom    9 type  2   force =    -0.00000000    0.00000000   -0.01100729
     atom   10 type  2   force =     0.00000000    0.00000000   -0.01100729
     atom   11 type  2   force =     0.00000000   -0.00000000    0.01100729
     atom   12 type  2   force =     0.00000000   -0.00000000    0.01100729

     Total force =     0.043722     Total SCF correction =     0.000035


     Computing stress (Cartesian axis) and pressure


     negative rho (up, down):  4.643E-03 0.000E+00
          total   stress  (Ry/bohr**3)                   (kbar)     P=     -153.56
  -0.00112925  -0.00000000   0.00000000         -166.12       -0.00        0.00
   0.00000000  -0.00112925   0.00000000            0.00     -166.12        0.00
  -0.00000000  -0.00000000  -0.00087310           -0.00       -0.00     -128.44


     Writing all to output data dir ./FeAl.save/ :
     XML data file, charge density, pseudopotentials, collected wavefunctions

     init_run     :      4.02s CPU      4.11s WALL (       1 calls)
     electrons    :    218.54s CPU    221.41s WALL (       1 calls)
     forces       :      1.03s CPU      1.04s WALL (       1 calls)
     stress       :      3.78s CPU      3.81s WALL (       1 calls)

     Called by init_run:
     wfcinit      :      2.94s CPU      3.00s WALL (       1 calls)
     potinit      :      0.57s CPU      0.59s WALL (       1 calls)
     hinit0       :      0.34s CPU      0.35s WALL (       1 calls)

     Called by electrons:
     c_bands      :    188.65s CPU    190.95s WALL (      28 calls)
     sum_band     :     23.16s CPU     23.53s WALL (      28 calls)
     v_of_rho     :      0.32s CPU      0.36s WALL (      29 calls)
     newd         :      1.75s CPU      1.78s WALL (      29 calls)
     PAW_pot      :      4.75s CPU      4.80s WALL (      29 calls)
     mix_rho      :      0.09s CPU      0.09s WALL (      28 calls)

     Called by c_bands:
     init_us_2    :      2.09s CPU      2.12s WALL (    1652 calls)
     cegterg      :    181.94s CPU    184.15s WALL (     784 calls)

     Called by *egterg:
     cdiaghg      :     35.50s CPU     35.71s WALL (    2927 calls)
     h_psi        :     98.44s CPU    100.13s WALL (    2955 calls)
     s_psi        :      9.12s CPU      9.19s WALL (    2955 calls)
     g_psi        :      0.43s CPU      0.44s WALL (    2143 calls)

     Called by h_psi:
     h_psi:calbec :     13.31s CPU     13.43s WALL (    2955 calls)
     vloc_psi     :     75.54s CPU     77.02s WALL (    2955 calls)
     add_vuspsi   :      8.93s CPU      9.00s WALL (    2955 calls)

     General routines
     calbec       :     20.94s CPU     21.15s WALL (    4215 calls)
     fft          :      0.48s CPU      0.53s WALL (     400 calls)
     ffts         :      0.40s CPU      0.41s WALL (      57 calls)
     fftw         :     77.92s CPU     79.38s WALL (  514204 calls)
     interpolate  :      0.41s CPU      0.42s WALL (      29 calls)

     Parallel routines

     PWSCF        :    228.05s CPU    239.42s WALL


   This run was terminated on:  16:19:18  27Oct2025            

=------------------------------------------------------------------------------=
   JOB DONE.
=------------------------------------------------------------------------------=
Note: The following floating-point exceptions are signalling: IEEE_UNDERFLOW_FLAG IEEE_DENORMAL
Note: The following floating-point exceptions are signalling: IEEE_UNDERFLOW_FLAG IEEE_DENORMAL
Note: The following floating-point exceptions are signalling: IEEE_UNDERFLOW_FLAG IEEE_DENORMAL
Note: The following floating-point exceptions are signalling: IEEE_UNDERFLOW_FLAG IEEE_DENORMAL
Note: The following floating-point exceptions are signalling: IEEE_UNDERFLOW_FLAG IEEE_DENORMAL
Note: The following floating-point exceptions are signalling: IEEE_UNDERFLOW_FLAG IEEE_DENORMAL
Note: The following floating-point exceptions are signalling: IEEE_UNDERFLOW_FLAG IEEE_DENORMAL
Note: The following floating-point exceptions are signalling: IEEE_UNDERFLOW_FLAG IEEE_DENORMAL
Note: The following floating-point exceptions are signalling: IEEE_UNDERFLOW_FLAG IEEE_DENORMAL
Note: The following floating-point exceptions are signalling: IEEE_UNDERFLOW_FLAG IEEE_DENORMAL
Note: The following floating-point exceptions are signalling: IEEE_UNDERFLOW_FLAG IEEE_DENORMAL
Note: The following floating-point exceptions are signalling: IEEE_UNDERFLOW_FLAG IEEE_DENORMAL
Note: The following floating-point exceptions are signalling: IEEE_UNDERFLOW_FLAG IEEE_DENORMAL
Note: The following floating-point exceptions are signalling: IEEE_UNDERFLOW_FLAG IEEE_DENORMAL
Note: The following floating-point exceptions are signalling: IEEE_UNDERFLOW_FLAG IEEE_DENORMAL
Note: The following floating-point exceptions are signalling: IEEE_UNDERFLOW_FLAG IEEE_DENORMAL
