
     Program PWSCF v.7.4 starts on 27Oct2025 at 16:27:34 

     This program is part of the open-source Quantum ESPRESSO suite
     for quantum simulation of materials; please cite
         "P. Giannozzi et al., J. Phys.:Condens. Matter 21 395502 (2009);
         "P. Giannozzi et al., J. Phys.:Condens. Matter 29 465901 (2017);
         "P. Giannozzi et al., J. Chem. Phys. 152 154105 (2020);
          URL http://www.quantum-espresso.org", 
     in publications or presentations arising from this work. More details at
     http://www.quantum-espresso.org/quote

     Parallel version (MPI & OpenMP), running on      16 processor cores
     Number of MPI processes:                16
     Threads/MPI process:                     1

     MPI processes distributed on     1 nodes
     225246 MiB available memory on the printing compute node when the environment starts

     Reading input from TiFe2_ecutrho_convergence/TiFe2_factor8.in

     Current dimensions of program PWSCF are:
     Max number of different atomic species (ntypx) = 10
     Max number of k-points (npk) =  40000
     Max angular momentum in pseudopotentials (lmaxx) =  4
     file Fe.pbe-spn-kjpaw_psl.0.2.1.UPF: wavefunction(s)  3D renormalized

     IMPORTANT: XC functional enforced from input :
     Exchange-correlation= PBE
                           (   1   4   3   4   0   0   0)
     Any further DFT definition will be discarded
     Please, verify this is what you really want

     Message from routine setup:
     using ibrav=0 with symmetry is DISCOURAGED, use correct ibrav instead

     R & G space division:  proc/nbgrp/npool/nimage =      16
     Subspace diagonalization in iterative solution of the eigenvalue problem:
     a serial algorithm will be used


     Parallelization info
     --------------------
     sticks:   dense  smooth     PW     G-vecs:    dense   smooth      PW
     Min         259     129     36                21925     7763    1138
     Max         260     131     37                21932     7768    1143
     Sum        4153    2077    583               350851   124229   18233

     Using Slab Decomposition



     bravais-lattice index     =            0
     lattice parameter (alat)  =       9.1568  a.u.
     unit-cell volume          =    1075.5644 (a.u.)^3
     number of atoms/cell      =           12
     number of atomic types    =            2
     number of electrons       =       176.00
     number of Kohn-Sham states=          106
     kinetic-energy cutoff     =      90.0000  Ry
     charge density cutoff     =     720.0000  Ry
     scf convergence threshold =      1.0E-08
     mixing beta               =       0.7000
     number of iterations used =            8  plain     mixing
     Exchange-correlation= PBE
                           (   1   4   3   4   0   0   0)

     celldm(1)=   9.156781  celldm(2)=   0.000000  celldm(3)=   0.000000
     celldm(4)=   0.000000  celldm(5)=   0.000000  celldm(6)=   0.000000

     crystal axes: (cart. coord. in units of alat)
               a(1) = (   1.000000   0.000000   0.000000 )  
               a(2) = (  -0.500000   0.866025   0.000000 )  
               a(3) = (   0.000000   0.000000   1.617623 )  

     reciprocal axes: (cart. coord. in units 2 pi/alat)
               b(1) = (  1.000000  0.577350 -0.000000 )  
               b(2) = (  0.000000  1.154701  0.000000 )  
               b(3) = (  0.000000 -0.000000  0.618191 )  


     PseudoPot. # 1 for Fe read from file:
     ./Fe.pbe-spn-kjpaw_psl.0.2.1.UPF
     MD5 check sum: e86618425769142926afa95317d90200
     Pseudo is Projector augmented-wave + core cor, Zval = 16.0
     Generated using "atomic" code by A. Dal Corso  v.5.0.99 svn rev. 10869
     Shape of augmentation charge: PSQ
     Using radial grid of 1191 points,  6 beta functions with: 
                l(1) =   0
                l(2) =   0
                l(3) =   1
                l(4) =   1
                l(5) =   2
                l(6) =   2
     Q(r) pseudized with 0 coefficients 


     PseudoPot. # 2 for Ti read from file:
     ./Ti_pbe_v1.4.uspp.F.UPF
     MD5 check sum: 88a00a6731bd790ddea75d31a80cb452
     Pseudo is Ultrasoft + core correction, Zval = 12.0
     Generated by new atomic code, or converted to UPF format
     Using radial grid of  851 points,  6 beta functions with: 
                l(1) =   0
                l(2) =   0
                l(3) =   1
                l(4) =   1
                l(5) =   2
                l(6) =   2
     Q(r) pseudized with  6 coefficients,  rinner =    1.000   1.000   1.000
                                                       1.000   1.000

     atomic species   valence    mass     pseudopotential
     Fe               16.00    55.84500     Fe( 1.00)
     Ti               12.00    47.86700     Ti( 1.00)

     24 Sym. Ops., with inversion, found (12 have fractional translation)



   Cartesian axes

     site n.     atom                  positions (alat units)
         1        Fe     tau(   1) = (   0.7465670   0.1463196   0.4044057  )
         2        Fe     tau(   2) = (  -0.2465670   0.7197058   1.2132171  )
         3        Fe     tau(   3) = (  -0.0000000   0.2926392   1.2132171  )
         4        Fe     tau(   4) = (   0.2534330   0.1463196   0.4044057  )
         5        Fe     tau(   5) = (   0.5000000   0.5733862   0.4044057  )
         6        Fe     tau(   6) = (   0.2465670   0.7197058   1.2132171  )
         7        Fe     tau(   7) = (   0.0000000   0.0000000   0.0000000  )
         8        Fe     tau(   8) = (   0.0000000   0.0000000   0.8088114  )
         9        Ti     tau(   9) = (   0.5000000   0.2886751   1.5200090  )
        10        Ti     tau(  10) = (  -0.0000000   0.5773503   0.7111976  )
        11        Ti     tau(  11) = (  -0.0000000   0.5773503   0.0976138  )
        12        Ti     tau(  12) = (   0.5000000   0.2886751   0.9064252  )

     number of k points=    28  Marzari-Vanderbilt smearing, width (Ry)=  0.0050
                       cart. coord. in units 2pi/alat
        k(    1) = (   0.0000000   0.0000000   0.0000000), wk =   0.0092593
        k(    2) = (   0.0000000   0.0000000   0.1030318), wk =   0.0185185
        k(    3) = (   0.0000000   0.0000000   0.2060637), wk =   0.0185185
        k(    4) = (   0.0000000   0.0000000  -0.3090955), wk =   0.0092593
        k(    5) = (   0.0000000   0.1924501   0.0000000), wk =   0.0555556
        k(    6) = (   0.0000000   0.1924501   0.1030318), wk =   0.1111111
        k(    7) = (   0.0000000   0.1924501   0.2060637), wk =   0.1111111
        k(    8) = (   0.0000000   0.1924501  -0.3090955), wk =   0.0555556
        k(    9) = (   0.0000000   0.3849002   0.0000000), wk =   0.0555556
        k(   10) = (   0.0000000   0.3849002   0.1030318), wk =   0.1111111
        k(   11) = (   0.0000000   0.3849002   0.2060637), wk =   0.1111111
        k(   12) = (   0.0000000   0.3849002  -0.3090955), wk =   0.0555556
        k(   13) = (   0.0000000  -0.5773503   0.0000000), wk =   0.0277778
        k(   14) = (   0.0000000  -0.5773503   0.1030318), wk =   0.0555556
        k(   15) = (   0.0000000  -0.5773503   0.2060637), wk =   0.0555556
        k(   16) = (   0.0000000  -0.5773503  -0.3090955), wk =   0.0277778
        k(   17) = (   0.1666667   0.2886751   0.0000000), wk =   0.0555556
        k(   18) = (   0.1666667   0.2886751   0.1030318), wk =   0.1111111
        k(   19) = (   0.1666667   0.2886751   0.2060637), wk =   0.1111111
        k(   20) = (   0.1666667   0.2886751  -0.3090955), wk =   0.0555556
        k(   21) = (   0.1666667   0.4811252   0.0000000), wk =   0.1111111
        k(   22) = (   0.1666667   0.4811252   0.1030318), wk =   0.2222222
        k(   23) = (   0.1666667   0.4811252   0.2060637), wk =   0.2222222
        k(   24) = (   0.1666667   0.4811252  -0.3090955), wk =   0.1111111
        k(   25) = (   0.3333333   0.5773503   0.0000000), wk =   0.0185185
        k(   26) = (   0.3333333   0.5773503   0.1030318), wk =   0.0370370
        k(   27) = (   0.3333333   0.5773503   0.2060637), wk =   0.0370370
        k(   28) = (   0.3333333   0.5773503  -0.3090955), wk =   0.0185185

     Dense  grid:   350851 G-vectors     FFT dimensions: (  80,  80, 128)

     Smooth grid:   124229 G-vectors     FFT dimensions: (  60,  60,  90)

     Estimated max dynamical RAM per process >     135.95 MB

     Estimated total dynamical RAM >       2.12 GB

     Check: negative core charge=   -0.000022

     Initial potential from superposition of free atoms

     starting charge     171.9963, renormalised to     176.0000

     negative rho (up, down):  5.340E-03 0.000E+00
     Starting wfcs are  144 randomized atomic wfcs
     Checking if some PAW data can be deallocated... 

     total cpu time spent up to now is        4.7 secs

     per-process dynamical memory:   179.0 Mb

     Self-consistent Calculation

     iteration #  1     ecut=    90.00 Ry     beta= 0.70
     Davidson diagonalization with overlap
     ethr =  1.00E-02,  avg # of iterations =  2.0

     negative rho (up, down):  2.597E-04 0.000E+00

     total cpu time spent up to now is       12.6 secs

     total energy              =   -3017.03286878 Ry
     estimated scf accuracy    <     116.54321885 Ry

     iteration #  2     ecut=    90.00 Ry     beta= 0.70
     Davidson diagonalization with overlap
     ethr =  1.00E-02,  avg # of iterations =  6.7

     total cpu time spent up to now is       28.7 secs

     total energy              =   -3075.97191712 Ry
     estimated scf accuracy    <     699.71546341 Ry

     iteration #  3     ecut=    90.00 Ry     beta= 0.70
     Davidson diagonalization with overlap
     ethr =  1.00E-02,  avg # of iterations =  5.1

     total cpu time spent up to now is       41.2 secs

     total energy              =   -3120.92281813 Ry
     estimated scf accuracy    <      91.50996108 Ry

     iteration #  4     ecut=    90.00 Ry     beta= 0.70
     Davidson diagonalization with overlap
     ethr =  1.00E-02,  avg # of iterations =  1.2

     total cpu time spent up to now is       47.5 secs

     total energy              =   -3116.48602997 Ry
     estimated scf accuracy    <      54.40584971 Ry

     iteration #  5     ecut=    90.00 Ry     beta= 0.70
     Davidson diagonalization with overlap
     ethr =  1.00E-02,  avg # of iterations =  1.7

     total cpu time spent up to now is       54.2 secs

     total energy              =   -3115.17928589 Ry
     estimated scf accuracy    <      41.79167742 Ry

     iteration #  6     ecut=    90.00 Ry     beta= 0.70
     Davidson diagonalization with overlap
     ethr =  1.00E-02,  avg # of iterations =  1.0

     negative rho (up, down):  3.732E-04 0.000E+00

     total cpu time spent up to now is       60.4 secs

     total energy              =   -3113.66901955 Ry
     estimated scf accuracy    <      26.00539160 Ry

     iteration #  7     ecut=    90.00 Ry     beta= 0.70
     Davidson diagonalization with overlap
     ethr =  1.00E-02,  avg # of iterations =  1.0

     negative rho (up, down):  1.627E-03 0.000E+00

     total cpu time spent up to now is       66.6 secs

     total energy              =   -3111.34147445 Ry
     estimated scf accuracy    <      18.34270021 Ry

     iteration #  8     ecut=    90.00 Ry     beta= 0.70
     Davidson diagonalization with overlap
     ethr =  1.00E-02,  avg # of iterations =  1.0

     negative rho (up, down):  2.010E-03 0.000E+00

     total cpu time spent up to now is       72.9 secs

     total energy              =   -3111.48259116 Ry
     estimated scf accuracy    <       6.17631740 Ry

     iteration #  9     ecut=    90.00 Ry     beta= 0.70
     Davidson diagonalization with overlap
     ethr =  3.51E-03,  avg # of iterations =  1.8

     negative rho (up, down):  2.656E-03 0.000E+00

     total cpu time spent up to now is       79.7 secs

     total energy              =   -3111.23392423 Ry
     estimated scf accuracy    <       4.39361067 Ry

     iteration # 10     ecut=    90.00 Ry     beta= 0.70
     Davidson diagonalization with overlap
     ethr =  2.50E-03,  avg # of iterations =  2.2

     negative rho (up, down):  4.883E-03 0.000E+00

     total cpu time spent up to now is       86.7 secs

     total energy              =   -3110.91826015 Ry
     estimated scf accuracy    <       1.49146455 Ry

     iteration # 11     ecut=    90.00 Ry     beta= 0.70
     Davidson diagonalization with overlap
     ethr =  8.47E-04,  avg # of iterations =  5.1

     negative rho (up, down):  3.964E-03 0.000E+00

     total cpu time spent up to now is       97.7 secs

     total energy              =   -3111.28618157 Ry
     estimated scf accuracy    <       7.11737854 Ry

     iteration # 12     ecut=    90.00 Ry     beta= 0.70
     Davidson diagonalization with overlap
     ethr =  8.47E-04,  avg # of iterations =  1.2

     negative rho (up, down):  2.490E-03 0.000E+00

     total cpu time spent up to now is      104.0 secs

     total energy              =   -3111.10044340 Ry
     estimated scf accuracy    <       1.48753853 Ry

     iteration # 13     ecut=    90.00 Ry     beta= 0.70
     Davidson diagonalization with overlap
     ethr =  8.45E-04,  avg # of iterations =  3.3

     negative rho (up, down):  2.981E-03 0.000E+00

     total cpu time spent up to now is      112.1 secs

     total energy              =   -3111.39846291 Ry
     estimated scf accuracy    <       1.35430348 Ry

     iteration # 14     ecut=    90.00 Ry     beta= 0.70
     Davidson diagonalization with overlap
     ethr =  7.69E-04,  avg # of iterations =  1.0

     negative rho (up, down):  3.393E-03 0.000E+00

     total cpu time spent up to now is      118.3 secs

     total energy              =   -3111.33337286 Ry
     estimated scf accuracy    <       0.87087899 Ry

     iteration # 15     ecut=    90.00 Ry     beta= 0.70
     Davidson diagonalization with overlap
     ethr =  4.95E-04,  avg # of iterations =  1.1

     negative rho (up, down):  3.463E-03 0.000E+00

     total cpu time spent up to now is      124.7 secs

     total energy              =   -3111.34850850 Ry
     estimated scf accuracy    <       0.13676819 Ry

     iteration # 16     ecut=    90.00 Ry     beta= 0.70
     Davidson diagonalization with overlap
     ethr =  7.77E-05,  avg # of iterations =  1.8

     negative rho (up, down):  3.492E-03 0.000E+00

     total cpu time spent up to now is      131.3 secs

     total energy              =   -3111.34939104 Ry
     estimated scf accuracy    <       0.07030808 Ry

     iteration # 17     ecut=    90.00 Ry     beta= 0.70
     Davidson diagonalization with overlap
     ethr =  3.99E-05,  avg # of iterations =  2.2

     negative rho (up, down):  3.594E-03 0.000E+00

     total cpu time spent up to now is      138.0 secs

     total energy              =   -3111.34515973 Ry
     estimated scf accuracy    <       0.07030557 Ry

     iteration # 18     ecut=    90.00 Ry     beta= 0.70
     Davidson diagonalization with overlap
     ethr =  3.99E-05,  avg # of iterations =  1.8

     negative rho (up, down):  3.690E-03 0.000E+00

     total cpu time spent up to now is      144.7 secs

     total energy              =   -3111.34403948 Ry
     estimated scf accuracy    <       0.02085124 Ry

     iteration # 19     ecut=    90.00 Ry     beta= 0.70
     Davidson diagonalization with overlap
     ethr =  1.18E-05,  avg # of iterations =  6.0

     negative rho (up, down):  3.691E-03 0.000E+00

     total cpu time spent up to now is      153.4 secs

     total energy              =   -3111.34568369 Ry
     estimated scf accuracy    <       0.00001454 Ry

     iteration # 20     ecut=    90.00 Ry     beta= 0.70
     Davidson diagonalization with overlap
     c_bands:  1 eigenvalues not converged
     ethr =  8.26E-09,  avg # of iterations = 12.4

     negative rho (up, down):  3.697E-03 0.000E+00

     total cpu time spent up to now is      181.0 secs

     total energy              =   -3111.34597340 Ry
     estimated scf accuracy    <       0.00006855 Ry

     iteration # 21     ecut=    90.00 Ry     beta= 0.70
     Davidson diagonalization with overlap
     ethr =  8.26E-09,  avg # of iterations =  1.1

     negative rho (up, down):  3.698E-03 0.000E+00

     total cpu time spent up to now is      187.3 secs

     total energy              =   -3111.34597294 Ry
     estimated scf accuracy    <       0.00003736 Ry

     iteration # 22     ecut=    90.00 Ry     beta= 0.70
     Davidson diagonalization with overlap
     ethr =  8.26E-09,  avg # of iterations =  1.0

     negative rho (up, down):  3.702E-03 0.000E+00

     total cpu time spent up to now is      193.5 secs

     total energy              =   -3111.34597482 Ry
     estimated scf accuracy    <       0.00001074 Ry

     iteration # 23     ecut=    90.00 Ry     beta= 0.70
     Davidson diagonalization with overlap
     ethr =  6.10E-09,  avg # of iterations =  1.0

     negative rho (up, down):  3.699E-03 0.000E+00

     total cpu time spent up to now is      199.7 secs

     total energy              =   -3111.34597183 Ry
     estimated scf accuracy    <       0.00004465 Ry

     iteration # 24     ecut=    90.00 Ry     beta= 0.70
     Davidson diagonalization with overlap
     ethr =  6.10E-09,  avg # of iterations =  1.4

     negative rho (up, down):  3.698E-03 0.000E+00

     total cpu time spent up to now is      206.3 secs

     total energy              =   -3111.34597233 Ry
     estimated scf accuracy    <       0.00000473 Ry

     iteration # 25     ecut=    90.00 Ry     beta= 0.70
     Davidson diagonalization with overlap
     ethr =  2.69E-09,  avg # of iterations =  3.1

     negative rho (up, down):  3.698E-03 0.000E+00

     total cpu time spent up to now is      214.0 secs

     total energy              =   -3111.34597287 Ry
     estimated scf accuracy    <       0.00000016 Ry

     iteration # 26     ecut=    90.00 Ry     beta= 0.70
     Davidson diagonalization with overlap
     ethr =  9.20E-11,  avg # of iterations =  5.0

     negative rho (up, down):  3.699E-03 0.000E+00

     total cpu time spent up to now is      225.3 secs

     total energy              =   -3111.34597292 Ry
     estimated scf accuracy    <       0.00000056 Ry

     iteration # 27     ecut=    90.00 Ry     beta= 0.70
     Davidson diagonalization with overlap
     ethr =  9.20E-11,  avg # of iterations =  1.4

     negative rho (up, down):  3.699E-03 0.000E+00

     total cpu time spent up to now is      231.7 secs

     total energy              =   -3111.34597292 Ry
     estimated scf accuracy    <       0.00000013 Ry

     iteration # 28     ecut=    90.00 Ry     beta= 0.70
     Davidson diagonalization with overlap
     ethr =  7.42E-11,  avg # of iterations =  2.2

     negative rho (up, down):  3.699E-03 0.000E+00

     total cpu time spent up to now is      238.8 secs

     End of self-consistent calculation

          k = 0.0000 0.0000 0.0000 ( 15507 PWs)   bands (ev):

   -70.7850 -70.7623 -70.7266 -70.7038 -70.6994 -70.6994 -70.6993 -70.6993
   -40.8834 -40.8692 -40.8339 -40.8186 -37.1895 -37.1197 -37.0106 -36.8918
   -36.8918 -36.8717 -36.8717 -36.8578 -36.8578 -36.7985 -36.7870 -36.7462
   -36.7462 -36.7435 -36.7435 -36.6451 -36.6429 -36.6429 -36.6418 -36.6418
   -36.6330 -36.6330 -36.6201 -36.6201 -17.1754 -17.1754 -17.1614 -17.1614
   -17.1601 -17.1584 -17.0195 -17.0165 -17.0021 -17.0021 -16.9875 -16.9875
     8.6176  10.6477  11.4213  12.0188  12.5087  12.6093  12.7684  12.7684
    12.9887  12.9887  13.1991  13.2937  13.3853  13.3853  13.8271  13.8271
    13.9655  13.9655  14.2074  14.2941  14.2941  14.3190  14.3190  14.7761
    14.7761  14.9084  15.3892  15.3892  15.5083  15.5083  15.8278  15.9118
    15.9118  15.9146  15.9146  16.0609  16.0639  16.0639  16.0713  16.1326
    16.1597  16.1597  16.2311  16.2767  16.2767  16.7291  16.7291  16.7451
    16.9881  16.9881  17.2872  17.2872  17.4909  17.4909  17.5139  17.5142
    17.7862  17.7862

          k = 0.0000 0.0000 0.1030 ( 15471 PWs)   bands (ev):

   -70.7839 -70.7647 -70.7243 -70.7049 -70.6994 -70.6994 -70.6993 -70.6993
   -40.8827 -40.8705 -40.8325 -40.8194 -37.1865 -37.1283 -36.9973 -36.8913
   -36.8913 -36.8763 -36.8763 -36.8500 -36.8500 -36.8370 -36.7699 -36.7698
   -36.7514 -36.7202 -36.7202 -36.6500 -36.6500 -36.6497 -36.6378 -36.6378
   -36.6331 -36.6331 -36.6202 -36.6201 -17.1745 -17.1745 -17.1624 -17.1624
   -17.1597 -17.1583 -17.0196 -17.0169 -17.0011 -17.0011 -16.9884 -16.9884
     8.6944  10.2977  11.7125  12.0194  12.4079  12.7816  12.7816  12.7991
    12.9709  12.9709  13.0472  13.3952  13.4119  13.4119  13.8040  13.8040
    13.9482  13.9482  14.1831  14.1831  14.2743  14.4631  14.4631  14.8319
    14.8319  14.9431  15.3155  15.3155  15.4199  15.4199  15.7043  15.8481
    15.9283  15.9283  16.0200  16.0200  16.0556  16.0556  16.0753  16.1284
    16.1643  16.1643  16.2165  16.2165  16.3674  16.7973  16.7973  16.9621
    16.9786  16.9786  17.2793  17.2793  17.4934  17.4934  17.5139  17.5142
    17.7696  17.7696

          k = 0.0000 0.0000 0.2061 ( 15471 PWs)   bands (ev):

   -70.7807 -70.7700 -70.7189 -70.7081 -70.6994 -70.6994 -70.6993 -70.6993
   -40.8806 -40.8737 -40.8291 -40.8217 -37.1778 -37.1461 -36.9657 -36.8896
   -36.8896 -36.8823 -36.8823 -36.8818 -36.8349 -36.8349 -36.7939 -36.7939
   -36.7155 -36.6974 -36.6974 -36.6634 -36.6616 -36.6616 -36.6354 -36.6354
   -36.6334 -36.6334 -36.6202 -36.6201 -17.1721 -17.1721 -17.1651 -17.1651
   -17.1589 -17.1581 -17.0195 -17.0180 -16.9983 -16.9983 -16.9910 -16.9910
     8.9209   9.7620  11.9821  12.0211  12.4582  12.8185  12.8185  12.8585
    12.9263  12.9263  13.0612  13.4123  13.4849  13.4849  13.7120  13.7120
    13.9586  13.9586  14.0862  14.0862  14.4997  14.6539  14.6539  14.9408
    14.9408  15.0283  15.1523  15.1523  15.2777  15.2777  15.4658  15.4911
    15.9605  15.9605  16.0258  16.0258  16.0812  16.0812  16.0865  16.1171
    16.1197  16.1197  16.3268  16.3268  16.6102  16.8002  16.8002  17.0140
    17.0140  17.2413  17.2413  17.3934  17.5140  17.5440  17.5440  17.5625
    17.7188  17.7188

          k = 0.0000 0.0000-0.3091 ( 15500 PWs)   bands (ev):

   -70.7758 -70.7758 -70.7131 -70.7131 -70.6994 -70.6994 -70.6994 -70.6994
   -40.8774 -40.8774 -40.8251 -40.8251 -37.1638 -37.1638 -36.9256 -36.9256
   -36.8868 -36.8868 -36.8868 -36.8868 -36.8159 -36.8159 -36.8159 -36.8159
   -36.6857 -36.6857 -36.6775 -36.6775 -36.6775 -36.6775 -36.6341 -36.6341
   -36.6341 -36.6341 -36.6202 -36.6202 -17.1687 -17.1687 -17.1687 -17.1687
   -17.1583 -17.1583 -17.0190 -17.0190 -16.9946 -16.9946 -16.9946 -16.9946
     9.2849   9.2849  12.0227  12.0227  12.6649  12.6649  12.8706  12.8706
    12.8706  12.8706  13.2879  13.2879  13.5911  13.5911  13.5911  13.5911
    14.0102  14.0102  14.0102  14.0102  14.8633  14.8633  14.8633  14.8633
    14.8720  14.8720  15.1482  15.1482  15.1482  15.1482  15.3167  15.3167
    16.0011  16.0011  16.0011  16.0011  16.0676  16.0676  16.0676  16.0676
    16.1017  16.1017  16.5877  16.5877  16.5877  16.5877  16.9834  16.9834
    17.1487  17.1487  17.1487  17.1487  17.5140  17.5140  17.6363  17.6363
    17.6363  17.6363

          k = 0.0000 0.1925 0.0000 ( 15506 PWs)   bands (ev):

   -70.7815 -70.7587 -70.7266 -70.7121 -70.7030 -70.6994 -70.6993 -70.6946
   -40.8807 -40.8663 -40.8370 -40.8215 -37.1679 -37.0983 -37.0081 -36.8906
   -36.8780 -36.8771 -36.8618 -36.8579 -36.8564 -36.7918 -36.7871 -36.7534
   -36.7462 -36.7443 -36.7436 -36.6596 -36.6542 -36.6505 -36.6461 -36.6429
   -36.6414 -36.6400 -36.6269 -36.6256 -17.1898 -17.1798 -17.1653 -17.1622
   -17.1571 -17.1375 -17.0358 -17.0124 -17.0074 -16.9980 -16.9833 -16.9798
     8.8835  10.8506  11.5995  12.1303  12.5487  12.6038  12.7140  12.8105
    12.9002  13.1528  13.1564  13.3960  13.4396  13.4678  13.7820  13.8803
    13.9659  14.0690  14.2444  14.2825  14.2950  14.3203  14.3664  14.6301
    14.6984  14.7105  15.0239  15.2174  15.2238  15.2788  15.4965  15.5671
    15.7635  15.8570  15.8796  15.9577  16.0030  16.0685  16.1144  16.1930
    16.2176  16.3004  16.3272  16.3560  16.4908  16.6270  16.8016  16.8951
    16.9054  17.0129  17.2894  17.3006  17.3347  17.5240  17.5427  17.5476
    17.5772  17.9174

          k = 0.0000 0.1925 0.1030 ( 15503 PWs)   bands (ev):

   -70.7804 -70.7611 -70.7245 -70.7125 -70.7027 -70.6994 -70.6993 -70.6953
   -40.8800 -40.8677 -40.8355 -40.8223 -37.1650 -37.1075 -36.9946 -36.8902
   -36.8830 -36.8776 -36.8652 -36.8538 -36.8460 -36.8293 -36.7741 -36.7693
   -36.7511 -36.7248 -36.7209 -36.6611 -36.6554 -36.6543 -36.6475 -36.6428
   -36.6424 -36.6414 -36.6267 -36.6256 -17.1883 -17.1789 -17.1664 -17.1657
   -17.1542 -17.1384 -17.0348 -17.0164 -17.0031 -16.9969 -16.9843 -16.9811
     8.9584  10.5149  11.8755  12.1313  12.4541  12.6569  12.7809  12.8295
    12.9361  13.1221  13.1310  13.3673  13.4706  13.5009  13.7765  13.8655
    13.9369  14.0352  14.1363  14.2176  14.3251  14.4431  14.5015  14.6905
    14.7326  14.7596  15.0251  15.1652  15.1826  15.2536  15.5064  15.5554
    15.6794  15.8070  15.8579  15.9272  16.0069  16.0369  16.1193  16.1693
    16.2034  16.2903  16.3051  16.3990  16.4984  16.6844  16.7876  16.9070
    16.9601  17.0947  17.2832  17.3224  17.3345  17.4693  17.5454  17.5718
    17.6243  17.8932

          k = 0.0000 0.1925 0.2061 ( 15491 PWs)   bands (ev):

   -70.7772 -70.7665 -70.7202 -70.7137 -70.7016 -70.6994 -70.6994 -70.6973
   -40.8779 -40.8710 -40.8320 -40.8246 -37.1566 -37.1256 -36.9642 -36.8986
   -36.8864 -36.8764 -36.8706 -36.8640 -36.8385 -36.8315 -36.7976 -36.7925
   -36.7182 -36.7046 -36.6986 -36.6666 -36.6643 -36.6623 -36.6495 -36.6474
   -36.6418 -36.6415 -36.6263 -36.6257 -17.1841 -17.1764 -17.1716 -17.1692
   -17.1496 -17.1410 -17.0319 -17.0221 -16.9967 -16.9941 -16.9868 -16.9848
     9.1793   9.9971  12.1185  12.1388  12.4824  12.6838  12.8035  12.8833
    13.0259  13.0488  13.1135  13.3674  13.5190  13.5508  13.7011  13.7863
    13.9477  14.0174  14.0587  14.1254  14.4499  14.6544  14.6742  14.7857
    14.8343  14.8399  14.9908  15.0773  15.0955  15.1733  15.3495  15.4351
    15.6713  15.8065  15.8565  15.8936  15.9197  16.0231  16.0550  16.0956
    16.1992  16.2944  16.3277  16.5046  16.5575  16.6866  16.7347  16.8211
    17.0745  17.2451  17.2648  17.3437  17.3929  17.5123  17.5387  17.6165
    17.6226  17.8237

          k = 0.0000 0.1925-0.3091 ( 15474 PWs)   bands (ev):

   -70.7723 -70.7723 -70.7162 -70.7162 -70.6997 -70.6997 -70.6994 -70.6994
   -40.8747 -40.8747 -40.8280 -40.8280 -37.1431 -37.1431 -36.9283 -36.9283
   -36.8807 -36.8807 -36.8742 -36.8742 -36.8195 -36.8195 -36.8136 -36.8136
   -36.6971 -36.6971 -36.6794 -36.6794 -36.6719 -36.6719 -36.6495 -36.6495
   -36.6416 -36.6416 -36.6260 -36.6260 -17.1782 -17.1782 -17.1729 -17.1729
   -17.1450 -17.1450 -17.0275 -17.0275 -16.9904 -16.9904 -16.9903 -16.9903
     9.5338   9.5338  12.1422  12.1422  12.6259  12.6259  12.8923  12.8923
    12.9618  12.9618  13.2865  13.2865  13.5868  13.5868  13.6635  13.6635
    14.0008  14.0008  14.0563  14.0563  14.6721  14.6721  14.8187  14.8188
    14.8842  14.8842  14.9549  14.9549  15.0948  15.0948  15.2746  15.2746
    15.7857  15.7857  15.8456  15.8456  15.9248  15.9248  16.0538  16.0538
    16.2479  16.2479  16.4870  16.4870  16.6493  16.6493  16.6860  16.6860
    17.1768  17.1768  17.3492  17.3492  17.4715  17.4715  17.5379  17.5379
    17.7225  17.7225

          k = 0.0000 0.3849 0.0000 ( 15504 PWs)   bands (ev):

   -70.7728 -70.7495 -70.7266 -70.7243 -70.7123 -70.6994 -70.6994 -70.6912
   -40.8735 -40.8586 -40.8448 -40.8292 -37.1158 -37.0472 -37.0028 -36.9061
   -36.8755 -36.8680 -36.8580 -36.8438 -36.8157 -36.7872 -36.7823 -36.7637
   -36.7477 -36.7462 -36.7445 -36.7153 -36.6874 -36.6866 -36.6733 -36.6529
   -36.6428 -36.6315 -36.6312 -36.6276 -17.1986 -17.1881 -17.1727 -17.1712
   -17.1471 -17.1097 -17.0613 -17.0191 -17.0030 -16.9902 -16.9754 -16.9739
     9.6320  11.3550  12.0187  12.0466  12.4026  12.5944  12.6504  12.9356
    13.0020  13.0732  13.5549  13.5697  13.5905  13.6369  13.7325  13.9210
    14.0021  14.1416  14.2441  14.2778  14.3258  14.3683  14.4105  14.4428
    14.4936  14.5401  14.5452  14.7687  14.7841  14.8843  14.9698  15.0728
    15.0974  15.3990  15.7129  15.9940  16.0846  16.1403  16.1485  16.1932
    16.2032  16.3320  16.4111  16.6265  16.6401  16.7398  16.7446  16.8446
    16.8549  17.0220  17.0263  17.3380  17.3928  17.6185  17.6752  17.6917
    17.7353  18.2599

          k = 0.0000 0.3849 0.1030 ( 15519 PWs)   bands (ev):

   -70.7717 -70.7520 -70.7260 -70.7243 -70.7104 -70.6994 -70.6994 -70.6923
   -40.8729 -40.8605 -40.8428 -40.8299 -37.1134 -37.0589 -36.9883 -36.9090
   -36.8780 -36.8599 -36.8566 -36.8444 -36.8146 -36.8142 -36.7837 -36.7661
   -36.7547 -36.7359 -36.7249 -36.7121 -36.6880 -36.6833 -36.6724 -36.6560
   -36.6461 -36.6350 -36.6304 -36.6277 -17.1967 -17.1872 -17.1738 -17.1727
   -17.1457 -17.1138 -17.0573 -17.0221 -17.0000 -16.9892 -16.9764 -16.9755
     9.7007  11.0870  11.9785  12.3209  12.3562  12.6112  12.6789  12.9389
    12.9648  13.1407  13.4627  13.4884  13.6566  13.7143  13.7395  13.9074
    13.9907  14.0979  14.2068  14.2732  14.2967  14.3023  14.3887  14.4838
    14.5470  14.5942  14.6567  14.7708  14.7957  14.9429  14.9700  15.0509
    15.1199  15.4178  15.7128  15.8933  16.0196  16.0601  16.1015  16.1550
    16.2134  16.3771  16.3907  16.6335  16.6479  16.7104  16.7305  16.8464
    16.8785  17.0675  17.1725  17.2888  17.3709  17.4871  17.6479  17.7183
    17.9661  18.1931

          k = 0.0000 0.3849 0.2061 ( 15519 PWs)   bands (ev):

   -70.7685 -70.7575 -70.7251 -70.7244 -70.7057 -70.6994 -70.6994 -70.6954
   -40.8710 -40.8643 -40.8389 -40.8319 -37.1059 -37.0775 -36.9621 -36.9186
   -36.8758 -36.8530 -36.8472 -36.8460 -36.8414 -36.8091 -36.8051 -36.7847
   -36.7385 -36.7290 -36.7074 -36.6982 -36.6902 -36.6733 -36.6693 -36.6652
   -36.6537 -36.6448 -36.6292 -36.6279 -17.1916 -17.1845 -17.1775 -17.1768
   -17.1411 -17.1230 -17.0482 -17.0290 -16.9937 -16.9863 -16.9799 -16.9789
     9.9025  10.6384  12.0314  12.2461  12.5902  12.6554  12.7445  12.8912
    13.0485  13.1961  13.3226  13.3701  13.7418  13.7514  13.8039  13.8937
    13.9401  14.0400  14.1776  14.1923  14.2403  14.3198  14.4496  14.5262
    14.5798  14.6198  14.7188  14.8445  14.8529  14.9646  14.9960  15.0483
    15.2562  15.4996  15.6955  15.7637  15.8556  15.9313  15.9503  16.0060
    16.2567  16.3512  16.4404  16.6242  16.6818  16.7005  16.7091  16.8474
    16.9466  17.1316  17.1692  17.3074  17.3796  17.5167  17.6417  17.8151
    17.9858  18.0875

          k = 0.0000 0.3849-0.3091 ( 15504 PWs)   bands (ev):

   -70.7635 -70.7635 -70.7247 -70.7247 -70.7002 -70.7002 -70.6994 -70.6994
   -40.8680 -40.8680 -40.8350 -40.8350 -37.0938 -37.0938 -36.9367 -36.9367
   -36.8652 -36.8652 -36.8490 -36.8490 -36.8260 -36.8260 -36.7994 -36.7994
   -36.7308 -36.7308 -36.6958 -36.6958 -36.6800 -36.6800 -36.6627 -36.6627
   -36.6588 -36.6588 -36.6284 -36.6284 -17.1845 -17.1845 -17.1807 -17.1807
   -17.1330 -17.1330 -17.0381 -17.0381 -16.9864 -16.9864 -16.9826 -16.9826
    10.2241  10.2241  12.1270  12.1270  12.6756  12.6756  12.8344  12.8344
    13.1747  13.1747  13.2650  13.2650  13.7742  13.7742  13.8431  13.8431
    13.9789  13.9789  14.1937  14.1937  14.2485  14.2485  14.5083  14.5083
    14.6015  14.6015  14.7871  14.7871  14.9524  14.9524  15.0257  15.0257
    15.5122  15.5122  15.6588  15.6588  15.7958  15.7958  15.8962  15.8962
    16.3153  16.3153  16.5419  16.5419  16.6590  16.6590  16.7972  16.7972
    17.0501  17.0501  17.2129  17.2129  17.5380  17.5380  17.7508  17.7509
    17.9561  17.9561

          k = 0.0000-0.5774 0.0000 ( 15546 PWs)   bands (ev):

   -70.7668 -70.7424 -70.7314 -70.7266 -70.7194 -70.6994 -70.6994 -70.6901
   -40.8677 -40.8525 -40.8509 -40.8353 -37.0819 -37.0112 -37.0000 -36.9322
   -36.8705 -36.8620 -36.8580 -36.8196 -36.7872 -36.7826 -36.7776 -36.7637
   -36.7625 -36.7463 -36.7462 -36.7449 -36.7250 -36.7009 -36.6959 -36.6568
   -36.6428 -36.6319 -36.6278 -36.6278 -17.1997 -17.1921 -17.1768 -17.1762
   -17.1406 -17.0968 -17.0741 -17.0261 -16.9973 -16.9866 -16.9734 -16.9717
    10.4814  11.0617  11.9972  12.1837  12.3526  12.6466  12.8046  12.8775
    13.0154  13.1961  13.6206  13.6449  13.7042  13.8996  13.9579  13.9643
    13.9845  14.0202  14.1163  14.2839  14.3315  14.3880  14.3912  14.4043
    14.4438  14.4816  14.4995  14.5406  14.5428  14.5587  14.6846  14.7419
    14.7731  15.0591  15.7517  16.0520  16.0679  16.1191  16.1484  16.2205
    16.2491  16.2909  16.3046  16.5636  16.6435  16.8292  16.9052  16.9573
    17.0316  17.0591  17.1279  17.1485  17.4122  17.5380  17.5621  17.6728
    17.8526  18.2039

          k = 0.0000-0.5774 0.1030 ( 15534 PWs)   bands (ev):

   -70.7656 -70.7449 -70.7314 -70.7288 -70.7147 -70.6994 -70.6994 -70.6913
   -40.8672 -40.8561 -40.8474 -40.8359 -37.0796 -37.0282 -36.9818 -36.9331
   -36.8717 -36.8557 -36.8555 -36.8223 -36.8050 -36.7893 -36.7772 -36.7636
   -36.7625 -36.7579 -36.7359 -36.7293 -36.7252 -36.6931 -36.6918 -36.6600
   -36.6464 -36.6313 -36.6309 -36.6279 -17.1978 -17.1911 -17.1774 -17.1774
   -17.1403 -17.1050 -17.0660 -17.0275 -16.9959 -16.9855 -16.9749 -16.9726
    10.5377  11.1037  11.7535  12.0842  12.5535  12.6616  12.7919  12.8773
    13.0504  13.2026  13.5846  13.6414  13.6973  13.9350  13.9552  13.9775
    14.0030  14.0032  14.0826  14.2105  14.2856  14.3649  14.3990  14.4128
    14.4245  14.4424  14.4910  14.5174  14.6497  14.6694  14.6817  14.7599
    14.8795  15.1270  15.7524  15.9752  16.0016  16.0916  16.1143  16.1393
    16.2068  16.2102  16.4861  16.6365  16.6870  16.7116  16.8022  16.8620
    16.9908  17.1624  17.1943  17.2782  17.3384  17.5000  17.7088  17.7416
    17.8445  18.1931

          k = 0.0000-0.5774 0.2061 ( 15496 PWs)   bands (ev):

   -70.7623 -70.7507 -70.7313 -70.7304 -70.7073 -70.6994 -70.6994 -70.6948
   -40.8657 -40.8599 -40.8434 -40.8375 -37.0729 -37.0468 -36.9608 -36.9368
   -36.8680 -36.8491 -36.8421 -36.8319 -36.8297 -36.8065 -36.7757 -36.7671
   -36.7629 -36.7625 -36.7298 -36.7257 -36.7057 -36.6809 -36.6759 -36.6696
   -36.6553 -36.6415 -36.6296 -36.6281 -17.1926 -17.1883 -17.1804 -17.1801
   -17.1375 -17.1182 -17.0530 -17.0323 -16.9917 -16.9827 -16.9793 -16.9752
    10.7012  11.1575  11.4806  11.8445  12.6629  12.7540  12.8055  12.9001
    13.1514  13.2505  13.4792  13.4852  13.7820  13.9334  13.9336  13.9521
    13.9751  14.0217  14.1255  14.1577  14.2929  14.3778  14.3852  14.3871
    14.4257  14.4518  14.4546  14.5025  14.6425  14.6626  14.8018  14.8044
    15.1676  15.3322  15.7290  15.7878  15.8802  15.9383  15.9893  16.0525
    16.2074  16.2294  16.5816  16.5860  16.7081  16.7489  16.8134  16.8176
    16.8348  17.1792  17.2701  17.3389  17.4739  17.4928  17.7821  17.8889
    17.8909  18.0870

          k = 0.0000-0.5774-0.3091 ( 15528 PWs)   bands (ev):

   -70.7570 -70.7570 -70.7310 -70.7310 -70.7003 -70.7003 -70.6994 -70.6994
   -40.8632 -40.8632 -40.8400 -40.8400 -37.0619 -37.0619 -36.9452 -36.9452
   -36.8547 -36.8547 -36.8397 -36.8397 -36.8252 -36.8252 -36.7727 -36.7727
   -36.7626 -36.7626 -36.7270 -36.7270 -36.6851 -36.6851 -36.6676 -36.6676
   -36.6572 -36.6572 -36.6287 -36.6287 -17.1859 -17.1859 -17.1844 -17.1844
   -17.1299 -17.1299 -17.0411 -17.0411 -16.9855 -16.9855 -16.9789 -16.9789
    10.9487  10.9487  11.5849  11.5849  12.7055  12.7055  12.9053  12.9053
    13.3051  13.3051  13.3504  13.3504  13.8706  13.8706  13.9305  13.9305
    13.9571  13.9571  14.2027  14.2027  14.3523  14.3523  14.3768  14.3768
    14.4068  14.4068  14.4821  14.4821  14.6452  14.6452  14.8358  14.8358
    15.5010  15.5010  15.5838  15.5838  15.8339  15.8339  15.9632  15.9632
    16.2286  16.2286  16.6277  16.6277  16.6604  16.6604  16.8186  16.8186
    16.9913  16.9913  17.3373  17.3373  17.6565  17.6565  17.6799  17.6799
    18.0462  18.0463

          k = 0.1667 0.2887 0.0000 ( 15488 PWs)   bands (ev):

   -70.7753 -70.7522 -70.7266 -70.7212 -70.7096 -70.6994 -70.6994 -70.6918
   -40.8756 -40.8609 -40.8425 -40.8270 -37.1298 -37.0610 -37.0041 -36.8953
   -36.8897 -36.8660 -36.8588 -36.8502 -36.8263 -36.7872 -36.7828 -36.7620
   -36.7473 -36.7454 -36.7451 -36.7048 -36.6840 -36.6554 -36.6499 -36.6496
   -36.6441 -36.6410 -36.6391 -36.6335 -17.1958 -17.1887 -17.1729 -17.1685
   -17.1472 -17.1145 -17.0562 -17.0183 -17.0055 -16.9906 -16.9761 -16.9756
     9.3922  11.2217  11.9113  12.2300  12.5137  12.5398  12.6035  12.8665
    12.9986  13.0172  13.3713  13.5188  13.5800  13.6500  13.7143  13.9105
    13.9482  14.1610  14.2130  14.2926  14.3375  14.4141  14.4368  14.4422
    14.5254  14.5854  14.6302  14.7858  14.9218  15.0299  15.1385  15.2905
    15.3369  15.4892  15.7587  15.8325  15.9355  16.0815  16.1784  16.2299
    16.2348  16.3208  16.5250  16.5475  16.5905  16.6572  16.7655  16.9187
    16.9449  17.0939  17.2226  17.2829  17.2952  17.3075  17.7392  17.7863
    17.7937  17.8689

          k = 0.1667 0.2887 0.1030 ( 15495 PWs)   bands (ev):

   -70.7742 -70.7547 -70.7254 -70.7213 -70.7083 -70.6994 -70.6994 -70.6928
   -40.8750 -40.8626 -40.8407 -40.8277 -37.1272 -37.0717 -36.9901 -36.9004
   -36.8883 -36.8607 -36.8580 -36.8495 -36.8242 -36.8184 -36.7792 -36.7702
   -36.7518 -36.7307 -36.7248 -36.7036 -36.6818 -36.6574 -36.6540 -36.6483
   -36.6455 -36.6415 -36.6390 -36.6359 -17.1940 -17.1877 -17.1740 -17.1702
   -17.1457 -17.1176 -17.0532 -17.0216 -17.0021 -16.9895 -16.9776 -16.9765
     9.4631  10.9173  12.1512  12.2316  12.5116  12.5262  12.5829  12.9789
    12.9928  13.0323  13.3229  13.4661  13.6115  13.6551  13.7267  13.9184
    13.9432  14.0884  14.1797  14.2407  14.3492  14.3776  14.4727  14.4815
    14.5877  14.6233  14.7292  14.8440  14.8985  15.0151  15.1725  15.2747
    15.3111  15.4993  15.7383  15.7725  15.8979  16.0419  16.1498  16.1820
    16.1974  16.3105  16.4158  16.6145  16.6293  16.7088  16.7376  16.9114
    16.9813  17.1457  17.2345  17.2839  17.3280  17.3407  17.6133  17.7594
    17.8277  17.9295

          k = 0.1667 0.2887 0.2061 ( 15507 PWs)   bands (ev):

   -70.7710 -70.7601 -70.7235 -70.7216 -70.7048 -70.6994 -70.6994 -70.6958
   -40.8730 -40.8662 -40.8370 -40.8298 -37.1195 -37.0902 -36.9626 -36.9132
   -36.8834 -36.8563 -36.8560 -36.8481 -36.8415 -36.8174 -36.8022 -36.7890
   -36.7311 -36.7196 -36.7040 -36.6964 -36.6747 -36.6643 -36.6623 -36.6503
   -36.6477 -36.6454 -36.6389 -36.6384 -17.1892 -17.1850 -17.1770 -17.1752
   -17.1410 -17.1250 -17.0459 -17.0286 -16.9955 -16.9867 -16.9819 -16.9791
     9.6719  10.4389  12.2434  12.3351  12.4743  12.5508  12.7070  12.9676
    13.0620  13.1415  13.2278  13.3670  13.6551  13.6701  13.7320  13.8976
    13.9707  14.0187  14.1277  14.1462  14.3257  14.4171  14.5559  14.5769
    14.6543  14.6579  14.8647  14.8682  14.9490  14.9891  15.1420  15.2431
    15.3546  15.5381  15.6608  15.7627  15.8363  15.9140  15.9706  16.0165
    16.1885  16.2954  16.4902  16.6066  16.6640  16.6852  16.7277  16.8495
    17.0942  17.2275  17.2641  17.3167  17.3726  17.4421  17.5394  17.6768
    17.7847  17.9389

          k = 0.1667 0.2887-0.3091 ( 15492 PWs)   bands (ev):

   -70.7660 -70.7660 -70.7222 -70.7222 -70.7001 -70.7001 -70.6994 -70.6994
   -40.8700 -40.8700 -40.8330 -40.8330 -37.1069 -37.1069 -36.9344 -36.9344
   -36.8724 -36.8724 -36.8542 -36.8542 -36.8238 -36.8238 -36.8054 -36.8054
   -36.7207 -36.7207 -36.6895 -36.6895 -36.6711 -36.6711 -36.6621 -36.6621
   -36.6470 -36.6470 -36.6387 -36.6387 -17.1828 -17.1828 -17.1805 -17.1805
   -17.1336 -17.1336 -17.0370 -17.0370 -16.9884 -16.9884 -16.9827 -16.9827
    10.0056  10.0056  12.2800  12.2800  12.5483  12.5483  12.8650  12.8650
    13.1292  13.1292  13.2721  13.2721  13.6667  13.6667  13.7940  13.7940
    14.0109  14.0109  14.1169  14.1169  14.3731  14.3731  14.6167  14.6167
    14.6665  14.6665  14.9162  14.9162  14.9557  14.9557  15.1529  15.1529
    15.5087  15.5087  15.7508  15.7508  15.7704  15.7704  15.8885  15.8885
    16.2474  16.2474  16.5683  16.5683  16.6662  16.6662  16.7616  16.7616
    17.2101  17.2101  17.2825  17.2825  17.4687  17.4687  17.5909  17.5909
    17.8122  17.8122

          k = 0.1667 0.4811 0.0000 ( 15511 PWs)   bands (ev):

   -70.7668 -70.7424 -70.7314 -70.7266 -70.7194 -70.6994 -70.6994 -70.6901
   -40.8676 -40.8525 -40.8510 -40.8354 -37.0771 -37.0080 -37.0000 -36.9346
   -36.8896 -36.8690 -36.8606 -36.8106 -36.7875 -36.7842 -36.7768 -36.7651
   -36.7634 -36.7504 -36.7491 -36.7391 -36.6987 -36.6933 -36.6799 -36.6535
   -36.6461 -36.6457 -36.6448 -36.6281 -17.1993 -17.1938 -17.1807 -17.1777
   -17.1321 -17.0900 -17.0793 -17.0342 -16.9961 -16.9832 -16.9777 -16.9674
    10.2867  11.5121  11.9160  12.3082  12.3245  12.6047  12.6527  12.8365
    12.8802  13.1326  13.6517  13.7016  13.7643  13.8269  13.8406  13.9089
    13.9107  14.0354  14.1875  14.2040  14.2348  14.3123  14.4062  14.4170
    14.4861  14.5004  14.5279  14.5485  14.6177  14.7074  14.8341  14.8522
    14.9844  15.1270  15.6562  15.7825  15.9411  15.9525  16.0819  16.1500
    16.3902  16.4233  16.4562  16.6024  16.6771  16.7222  16.8234  16.9508
    17.1272  17.1278  17.2055  17.2231  17.3220  17.4605  17.7238  17.7897
    17.9206  18.0268

          k = 0.1667 0.4811 0.1030 ( 15506 PWs)   bands (ev):

   -70.7656 -70.7449 -70.7314 -70.7288 -70.7147 -70.6994 -70.6994 -70.6913
   -40.8671 -40.8560 -40.8474 -40.8359 -37.0750 -37.0252 -36.9821 -36.9361
   -36.8876 -36.8644 -36.8581 -36.8140 -36.8045 -36.7897 -36.7807 -36.7735
   -36.7586 -36.7536 -36.7323 -36.7284 -36.6948 -36.6910 -36.6785 -36.6569
   -36.6493 -36.6458 -36.6438 -36.6313 -17.1979 -17.1923 -17.1819 -17.1776
   -17.1324 -17.1009 -17.0686 -17.0346 -16.9955 -16.9821 -16.9791 -16.9684
    10.3479  11.4674  11.7415  12.2505  12.5421  12.5544  12.6670  12.8194
    12.9598  13.1598  13.5942  13.6513  13.7843  13.8099  13.8865  13.9009
    13.9553  14.0406  14.0894  14.1542  14.2501  14.2681  14.3630  14.4404
    14.4537  14.5101  14.5385  14.5865  14.6469  14.7932  14.8527  14.9191
    15.0246  15.1645  15.6509  15.7501  15.8439  15.9775  16.0675  16.1131
    16.2615  16.3404  16.5647  16.6116  16.6877  16.6981  16.8388  16.9738
    17.0830  17.1392  17.1959  17.2752  17.3334  17.4471  17.6581  17.9023
    17.9560  18.0037

          k = 0.1667 0.4811 0.2061 ( 15510 PWs)   bands (ev):

   -70.7623 -70.7507 -70.7313 -70.7304 -70.7073 -70.6994 -70.6994 -70.6948
   -40.8656 -40.8599 -40.8434 -40.8375 -37.0685 -37.0432 -36.9631 -36.9407
   -36.8787 -36.8539 -36.8515 -36.8338 -36.8206 -36.8076 -36.7812 -36.7780
   -36.7570 -36.7553 -36.7151 -36.7115 -36.6916 -36.6786 -36.6729 -36.6661
   -36.6565 -36.6474 -36.6432 -36.6391 -17.1944 -17.1883 -17.1852 -17.1788
   -17.1312 -17.1145 -17.0552 -17.0373 -16.9930 -16.9831 -16.9790 -16.9712
    10.5270  11.1617  11.7637  12.1147  12.5328  12.6293  12.7741  12.8283
    13.1150  13.2297  13.4687  13.5166  13.8059  13.8402  13.8885  13.9156
    13.9624  14.0302  14.0510  14.1288  14.2149  14.2788  14.3362  14.3703
    14.4270  14.4813  14.5486  14.6032  14.7215  14.8401  14.9587  14.9906
    15.2107  15.3178  15.6257  15.6504  15.7141  15.8658  16.0125  16.0746
    16.1422  16.2317  16.5891  16.6388  16.6700  16.7457  16.8632  16.9798
    17.0597  17.1382  17.2399  17.2919  17.3297  17.4768  17.6752  17.8306
    17.9737  18.1270

          k = 0.1667 0.4811-0.3091 ( 15512 PWs)   bands (ev):

   -70.7570 -70.7570 -70.7310 -70.7310 -70.7003 -70.7003 -70.6994 -70.6994
   -40.8632 -40.8632 -40.8401 -40.8401 -37.0578 -37.0578 -36.9492 -36.9492
   -36.8606 -36.8606 -36.8457 -36.8457 -36.8226 -36.8226 -36.7803 -36.7802
   -36.7562 -36.7562 -36.7072 -36.7072 -36.6802 -36.6802 -36.6674 -36.6674
   -36.6578 -36.6578 -36.6426 -36.6426 -17.1899 -17.1899 -17.1828 -17.1828
   -17.1253 -17.1253 -17.0443 -17.0443 -16.9883 -16.9883 -16.9751 -16.9751
    10.8090  10.8090  11.9237  11.9237  12.5859  12.5859  12.8293  12.8293
    13.2935  13.2935  13.3689  13.3689  13.8367  13.8367  13.8811  13.8811
    14.0049  14.0049  14.0862  14.0862  14.2452  14.2452  14.3602  14.3602
    14.4258  14.4258  14.5653  14.5653  14.7967  14.7967  15.0274  15.0274
    15.4251  15.4251  15.5723  15.5723  15.6832  15.6832  15.9962  15.9962
    16.1688  16.1688  16.6239  16.6239  16.7092  16.7092  16.9217  16.9217
    17.0971  17.0971  17.2712  17.2712  17.4322  17.4322  17.7495  17.7495
    18.0025  18.0025

          k = 0.3333 0.5774 0.0000 ( 15498 PWs)   bands (ev):

   -70.7627 -70.7359 -70.7359 -70.7266 -70.7259 -70.6994 -70.6994 -70.6897
   -40.8594 -40.8594 -40.8439 -40.8439 -37.0419 -36.9986 -36.9679 -36.9679
   -36.9206 -36.8660 -36.8660 -36.7888 -36.7888 -36.7781 -36.7781 -36.7699
   -36.7613 -36.7613 -36.7566 -36.6955 -36.6955 -36.6941 -36.6803 -36.6803
   -36.6730 -36.6494 -36.6494 -36.6267 -17.2035 -17.1872 -17.1872 -17.1859
   -17.1060 -17.1060 -17.0611 -17.0611 -16.9862 -16.9862 -16.9787 -16.9629
    10.8822  11.6225  11.6225  12.3704  12.4064  12.6308  12.6308  12.7343
    12.7343  13.0877  13.7834  13.7834  13.8575  13.8575  13.9719  13.9719
    13.9744  13.9776  14.0166  14.0166  14.1080  14.2105  14.2561  14.2561
    14.5165  14.5165  14.5286  14.5853  14.5853  14.8859  14.8859  14.9430
    14.9786  15.0585  15.6616  15.7042  15.7042  15.7458  15.7458  16.0388
    16.5538  16.5538  16.5741  16.5741  16.7894  16.7894  16.9449  16.9449
    16.9704  17.1394  17.3135  17.3849  17.3849  17.4005  17.7708  17.7708
    17.8197  17.9665

          k = 0.3333 0.5774 0.1030 ( 15495 PWs)   bands (ev):

   -70.7615 -70.7359 -70.7359 -70.7357 -70.7168 -70.6994 -70.6994 -70.6909
   -40.8594 -40.8594 -40.8439 -40.8439 -37.0401 -37.0040 -36.9681 -36.9681
   -36.9115 -36.8629 -36.8629 -36.7960 -36.7938 -36.7938 -36.7859 -36.7859
   -36.7518 -36.7518 -36.7341 -36.6946 -36.6929 -36.6929 -36.6800 -36.6800
   -36.6711 -36.6519 -36.6519 -36.6300 -17.2023 -17.1872 -17.1860 -17.1860
   -17.1097 -17.1097 -17.0577 -17.0577 -16.9870 -16.9870 -16.9776 -16.9639
    10.9328  11.6634  11.6634  11.9946  12.5127  12.5127  12.7846  12.8047
    12.8047  13.1217  13.7468  13.7468  13.8401  13.9079  13.9079  13.9263
    13.9606  13.9606  14.0194  14.0194  14.1470  14.1875  14.1936  14.1936
    14.4643  14.4643  14.5636  14.7222  14.7222  14.8817  14.8919  14.8919
    15.0744  15.1418  15.6176  15.6176  15.6322  15.8294  15.8294  15.9794
    16.3957  16.3957  16.6313  16.6313  16.7987  16.7987  16.9610  16.9933
    16.9933  17.1685  17.2193  17.3741  17.3741  17.4102  17.7662  17.7662
    17.9610  17.9610

          k = 0.3333 0.5774 0.2061 ( 15513 PWs)   bands (ev):

   -70.7579 -70.7445 -70.7359 -70.7359 -70.7080 -70.6994 -70.6994 -70.6946
   -40.8595 -40.8595 -40.8438 -40.8438 -37.0348 -37.0151 -36.9685 -36.9685
   -36.8893 -36.8549 -36.8549 -36.8287 -36.8105 -36.8105 -36.7871 -36.7871
   -36.7426 -36.7426 -36.7132 -36.6966 -36.6871 -36.6871 -36.6775 -36.6775
   -36.6643 -36.6591 -36.6591 -36.6393 -17.1993 -17.1905 -17.1834 -17.1834
   -17.1164 -17.1164 -17.0516 -17.0516 -16.9889 -16.9889 -16.9745 -16.9667
    11.0815  11.6302  11.7689  11.7689  12.3336  12.3336  12.8637  12.8637
    13.1508  13.2193  13.6294  13.7131  13.7131  13.7754  13.9029  13.9029
    13.9377  13.9377  14.0785  14.0785  14.1480  14.1521  14.1586  14.1586
    14.4177  14.4177  14.6433  14.7508  14.7508  14.8110  15.0471  15.0471
    15.2236  15.3331  15.4986  15.4986  15.5529  15.8207  15.9098  15.9098
    16.2263  16.2263  16.6362  16.6362  16.8110  16.8110  16.9565  17.0744
    17.0744  17.0774  17.2498  17.3354  17.3354  17.3996  17.7760  17.7760
    17.9194  17.9195

          k = 0.3333 0.5774-0.3091 ( 15564 PWs)   bands (ev):

   -70.7521 -70.7521 -70.7359 -70.7359 -70.7004 -70.7004 -70.6994 -70.6994
   -40.8596 -40.8596 -40.8437 -40.8437 -37.0262 -37.0262 -36.9687 -36.9687
   -36.8606 -36.8606 -36.8487 -36.8487 -36.8202 -36.8202 -36.7872 -36.7872
   -36.7396 -36.7396 -36.7016 -36.7016 -36.6848 -36.6848 -36.6692 -36.6692
   -36.6691 -36.6691 -36.6523 -36.6523 -17.1950 -17.1950 -17.1820 -17.1820
   -17.1196 -17.1196 -17.0489 -17.0489 -16.9899 -16.9899 -16.9705 -16.9705
    11.3190  11.3190  11.8488  11.8488  12.2271  12.2271  12.8827  12.8827
    13.3422  13.3422  13.5596  13.5596  13.6998  13.6998  13.8812  13.8812
    13.9274  13.9274  14.1243  14.1243  14.1393  14.1393  14.1650  14.1650
    14.3898  14.3898  14.7283  14.7283  14.7307  14.7307  15.1909  15.1909
    15.3755  15.3755  15.3971  15.3971  15.6105  15.6105  15.9408  15.9408
    16.1581  16.1581  16.6342  16.6342  16.8159  16.8159  16.9893  16.9893
    17.1183  17.1183  17.3025  17.3025  17.3384  17.3384  17.7864  17.7864
    17.8920  17.8920

     the Fermi energy is    16.1669 ev

!    total energy              =   -3111.34597293 Ry
     estimated scf accuracy    <          1.8E-10 Ry
     smearing contrib. (-TS)   =       0.00009765 Ry
     internal energy E=F+TS    =   -3111.34607058 Ry

     The total energy is F=E-TS. E is the sum of the following terms:
     one-electron contribution =   -1208.35762154 Ry
     hartree contribution      =     698.27025086 Ry
     xc contribution           =    -349.40378778 Ry
     ewald contribution        =   -1642.60130586 Ry
     one-center paw contrib.   =    -609.25360627 Ry

     convergence has been achieved in  28 iterations

     negative rho (up, down):  3.699E-03 0.000E+00

     Forces acting on atoms (cartesian axes, Ry/au):

     atom    1 type  1   force =    -0.01338074    0.00772537   -0.00000000
     atom    2 type  1   force =     0.01338074   -0.00772537   -0.00000000
     atom    3 type  1   force =     0.00000000    0.01545075   -0.00000000
     atom    4 type  1   force =     0.01338074    0.00772537   -0.00000000
     atom    5 type  1   force =     0.00000000   -0.01545075   -0.00000000
     atom    6 type  1   force =    -0.01338074   -0.00772537    0.00000000
     atom    7 type  1   force =    -0.00000000   -0.00000000   -0.00000000
     atom    8 type  1   force =    -0.00000000   -0.00000000    0.00000000
     atom    9 type  2   force =     0.00000000    0.00000000   -0.01102405
     atom   10 type  2   force =     0.00000000   -0.00000000   -0.01102405
     atom   11 type  2   force =     0.00000000    0.00000000    0.01102405
     atom   12 type  2   force =     0.00000000    0.00000000    0.01102405

     Total force =     0.043800     Total SCF correction =     0.000024


     Computing stress (Cartesian axis) and pressure


     negative rho (up, down):  3.699E-03 0.000E+00
          total   stress  (Ry/bohr**3)                   (kbar)     P=     -152.78
  -0.00112388   0.00000000   0.00000000         -165.33        0.00        0.00
   0.00000000  -0.00112388   0.00000000            0.00     -165.33        0.00
   0.00000000   0.00000000  -0.00086790            0.00        0.00     -127.67


     Writing all to output data dir ./FeAl.save/ :
     XML data file, charge density, pseudopotentials, collected wavefunctions

     init_run     :      4.38s CPU      4.49s WALL (       1 calls)
     electrons    :    226.87s CPU    234.26s WALL (       1 calls)
     forces       :      1.12s CPU      1.16s WALL (       1 calls)
     stress       :      4.51s CPU      4.59s WALL (       1 calls)

     Called by init_run:
     wfcinit      :      3.06s CPU      3.13s WALL (       1 calls)
     potinit      :      0.59s CPU      0.61s WALL (       1 calls)
     hinit0       :      0.53s CPU      0.54s WALL (       1 calls)

     Called by electrons:
     c_bands      :    192.99s CPU    198.10s WALL (      28 calls)
     sum_band     :     25.01s CPU     26.21s WALL (      28 calls)
     v_of_rho     :      0.68s CPU      0.73s WALL (      29 calls)
     newd         :      3.20s CPU      3.88s WALL (      29 calls)
     PAW_pot      :      5.09s CPU      5.32s WALL (      29 calls)
     mix_rho      :      0.11s CPU      0.12s WALL (      28 calls)

     Called by c_bands:
     init_us_2    :      2.08s CPU      2.12s WALL (    1652 calls)
     cegterg      :    186.36s CPU    191.21s WALL (     784 calls)

     Called by *egterg:
     cdiaghg      :     35.79s CPU     36.12s WALL (    2915 calls)
     h_psi        :    102.83s CPU    105.55s WALL (    2943 calls)
     s_psi        :      8.95s CPU      9.15s WALL (    2943 calls)
     g_psi        :      0.42s CPU      0.43s WALL (    2131 calls)

     Called by h_psi:
     h_psi:calbec :     13.81s CPU     13.93s WALL (    2943 calls)
     vloc_psi     :     79.40s CPU     81.26s WALL (    2943 calls)
     add_vuspsi   :      8.97s CPU      9.04s WALL (    2943 calls)

     General routines
     calbec       :     21.47s CPU     21.65s WALL (    4203 calls)
     fft          :      0.90s CPU      0.98s WALL (     400 calls)
     ffts         :      0.41s CPU      0.41s WALL (      57 calls)
     fftw         :     79.02s CPU     80.66s WALL (  512400 calls)
     interpolate  :      0.43s CPU      0.44s WALL (      29 calls)

     Parallel routines

     PWSCF        :    237.55s CPU    253.61s WALL


   This run was terminated on:  16:31:48  27Oct2025            

=------------------------------------------------------------------------------=
   JOB DONE.
=------------------------------------------------------------------------------=
Note: The following floating-point exceptions are signalling: IEEE_UNDERFLOW_FLAG IEEE_DENORMAL
Note: The following floating-point exceptions are signalling: IEEE_UNDERFLOW_FLAG IEEE_DENORMAL
Note: The following floating-point exceptions are signalling: IEEE_UNDERFLOW_FLAG IEEE_DENORMAL
Note: The following floating-point exceptions are signalling: IEEE_UNDERFLOW_FLAG IEEE_DENORMAL
Note: The following floating-point exceptions are signalling: IEEE_UNDERFLOW_FLAG IEEE_DENORMAL
Note: The following floating-point exceptions are signalling: IEEE_UNDERFLOW_FLAG IEEE_DENORMAL
Note: The following floating-point exceptions are signalling: IEEE_UNDERFLOW_FLAG IEEE_DENORMAL
Note: The following floating-point exceptions are signalling: IEEE_UNDERFLOW_FLAG IEEE_DENORMAL
Note: The following floating-point exceptions are signalling: IEEE_UNDERFLOW_FLAG IEEE_DENORMAL
Note: The following floating-point exceptions are signalling: IEEE_UNDERFLOW_FLAG IEEE_DENORMAL
Note: The following floating-point exceptions are signalling: IEEE_UNDERFLOW_FLAG IEEE_DENORMAL
Note: The following floating-point exceptions are signalling: IEEE_UNDERFLOW_FLAG IEEE_DENORMAL
Note: The following floating-point exceptions are signalling: IEEE_UNDERFLOW_FLAG IEEE_DENORMAL
Note: The following floating-point exceptions are signalling: IEEE_UNDERFLOW_FLAG IEEE_DENORMAL
Note: The following floating-point exceptions are signalling: IEEE_UNDERFLOW_FLAG IEEE_DENORMAL
Note: The following floating-point exceptions are signalling: IEEE_UNDERFLOW_FLAG IEEE_DENORMAL
