
     Program PWSCF v.7.4 starts on 27Oct2025 at 16: 8: 8 

     This program is part of the open-source Quantum ESPRESSO suite
     for quantum simulation of materials; please cite
         "P. Giannozzi et al., J. Phys.:Condens. Matter 21 395502 (2009);
         "P. Giannozzi et al., J. Phys.:Condens. Matter 29 465901 (2017);
         "P. Giannozzi et al., J. Chem. Phys. 152 154105 (2020);
          URL http://www.quantum-espresso.org", 
     in publications or presentations arising from this work. More details at
     http://www.quantum-espresso.org/quote

     Parallel version (MPI & OpenMP), running on      16 processor cores
     Number of MPI processes:                16
     Threads/MPI process:                     1

     MPI processes distributed on     1 nodes
     226774 MiB available memory on the printing compute node when the environment starts

     Reading input from TiFe2_ecutrho_convergence/TiFe2_factor3.in

     Current dimensions of program PWSCF are:
     Max number of different atomic species (ntypx) = 10
     Max number of k-points (npk) =  40000
     Max angular momentum in pseudopotentials (lmaxx) =  4
     file Fe.pbe-spn-kjpaw_psl.0.2.1.UPF: wavefunction(s)  3D renormalized

     IMPORTANT: XC functional enforced from input :
     Exchange-correlation= PBE
                           (   1   4   3   4   0   0   0)
     Any further DFT definition will be discarded
     Please, verify this is what you really want

     Message from routine set_cutoff:
     ecutrho < 4*ecutwfc, are you sure?
     Message from routine setup:
     using ibrav=0 with symmetry is DISCOURAGED, use correct ibrav instead

     R & G space division:  proc/nbgrp/npool/nimage =      16
     Subspace diagonalization in iterative solution of the eigenvalue problem:
     a serial algorithm will be used


     Parallelization info
     --------------------
     sticks:   dense  smooth     PW     G-vecs:    dense   smooth      PW
     Min          97      97     36                 5035     5035    1138
     Max          98      98     37                 5042     5042    1143
     Sum        1555    1555    583                80615    80615   18233

     Using Slab Decomposition



     bravais-lattice index     =            0
     lattice parameter (alat)  =       9.1568  a.u.
     unit-cell volume          =    1075.5644 (a.u.)^3
     number of atoms/cell      =           12
     number of atomic types    =            2
     number of electrons       =       176.00
     number of Kohn-Sham states=          106
     kinetic-energy cutoff     =      90.0000  Ry
     charge density cutoff     =     270.0000  Ry
     scf convergence threshold =      1.0E-08
     mixing beta               =       0.7000
     number of iterations used =            8  plain     mixing
     Exchange-correlation= PBE
                           (   1   4   3   4   0   0   0)

     celldm(1)=   9.156781  celldm(2)=   0.000000  celldm(3)=   0.000000
     celldm(4)=   0.000000  celldm(5)=   0.000000  celldm(6)=   0.000000

     crystal axes: (cart. coord. in units of alat)
               a(1) = (   1.000000   0.000000   0.000000 )  
               a(2) = (  -0.500000   0.866025   0.000000 )  
               a(3) = (   0.000000   0.000000   1.617623 )  

     reciprocal axes: (cart. coord. in units 2 pi/alat)
               b(1) = (  1.000000  0.577350 -0.000000 )  
               b(2) = (  0.000000  1.154701  0.000000 )  
               b(3) = (  0.000000 -0.000000  0.618191 )  


     PseudoPot. # 1 for Fe read from file:
     ./Fe.pbe-spn-kjpaw_psl.0.2.1.UPF
     MD5 check sum: e86618425769142926afa95317d90200
     Pseudo is Projector augmented-wave + core cor, Zval = 16.0
     Generated using "atomic" code by A. Dal Corso  v.5.0.99 svn rev. 10869
     Shape of augmentation charge: PSQ
     Using radial grid of 1191 points,  6 beta functions with: 
                l(1) =   0
                l(2) =   0
                l(3) =   1
                l(4) =   1
                l(5) =   2
                l(6) =   2
     Q(r) pseudized with 0 coefficients 


     PseudoPot. # 2 for Ti read from file:
     ./Ti_pbe_v1.4.uspp.F.UPF
     MD5 check sum: 88a00a6731bd790ddea75d31a80cb452
     Pseudo is Ultrasoft + core correction, Zval = 12.0
     Generated by new atomic code, or converted to UPF format
     Using radial grid of  851 points,  6 beta functions with: 
                l(1) =   0
                l(2) =   0
                l(3) =   1
                l(4) =   1
                l(5) =   2
                l(6) =   2
     Q(r) pseudized with  6 coefficients,  rinner =    1.000   1.000   1.000
                                                       1.000   1.000

     atomic species   valence    mass     pseudopotential
     Fe               16.00    55.84500     Fe( 1.00)
     Ti               12.00    47.86700     Ti( 1.00)

     24 Sym. Ops., with inversion, found (12 have fractional translation)



   Cartesian axes

     site n.     atom                  positions (alat units)
         1        Fe     tau(   1) = (   0.7465670   0.1463196   0.4044057  )
         2        Fe     tau(   2) = (  -0.2465670   0.7197058   1.2132171  )
         3        Fe     tau(   3) = (  -0.0000000   0.2926392   1.2132171  )
         4        Fe     tau(   4) = (   0.2534330   0.1463196   0.4044057  )
         5        Fe     tau(   5) = (   0.5000000   0.5733862   0.4044057  )
         6        Fe     tau(   6) = (   0.2465670   0.7197058   1.2132171  )
         7        Fe     tau(   7) = (   0.0000000   0.0000000   0.0000000  )
         8        Fe     tau(   8) = (   0.0000000   0.0000000   0.8088114  )
         9        Ti     tau(   9) = (   0.5000000   0.2886751   1.5200090  )
        10        Ti     tau(  10) = (  -0.0000000   0.5773503   0.7111976  )
        11        Ti     tau(  11) = (  -0.0000000   0.5773503   0.0976138  )
        12        Ti     tau(  12) = (   0.5000000   0.2886751   0.9064252  )

     number of k points=    28  Marzari-Vanderbilt smearing, width (Ry)=  0.0050
                       cart. coord. in units 2pi/alat
        k(    1) = (   0.0000000   0.0000000   0.0000000), wk =   0.0092593
        k(    2) = (   0.0000000   0.0000000   0.1030318), wk =   0.0185185
        k(    3) = (   0.0000000   0.0000000   0.2060637), wk =   0.0185185
        k(    4) = (   0.0000000   0.0000000  -0.3090955), wk =   0.0092593
        k(    5) = (   0.0000000   0.1924501   0.0000000), wk =   0.0555556
        k(    6) = (   0.0000000   0.1924501   0.1030318), wk =   0.1111111
        k(    7) = (   0.0000000   0.1924501   0.2060637), wk =   0.1111111
        k(    8) = (   0.0000000   0.1924501  -0.3090955), wk =   0.0555556
        k(    9) = (   0.0000000   0.3849002   0.0000000), wk =   0.0555556
        k(   10) = (   0.0000000   0.3849002   0.1030318), wk =   0.1111111
        k(   11) = (   0.0000000   0.3849002   0.2060637), wk =   0.1111111
        k(   12) = (   0.0000000   0.3849002  -0.3090955), wk =   0.0555556
        k(   13) = (   0.0000000  -0.5773503   0.0000000), wk =   0.0277778
        k(   14) = (   0.0000000  -0.5773503   0.1030318), wk =   0.0555556
        k(   15) = (   0.0000000  -0.5773503   0.2060637), wk =   0.0555556
        k(   16) = (   0.0000000  -0.5773503  -0.3090955), wk =   0.0277778
        k(   17) = (   0.1666667   0.2886751   0.0000000), wk =   0.0555556
        k(   18) = (   0.1666667   0.2886751   0.1030318), wk =   0.1111111
        k(   19) = (   0.1666667   0.2886751   0.2060637), wk =   0.1111111
        k(   20) = (   0.1666667   0.2886751  -0.3090955), wk =   0.0555556
        k(   21) = (   0.1666667   0.4811252   0.0000000), wk =   0.1111111
        k(   22) = (   0.1666667   0.4811252   0.1030318), wk =   0.2222222
        k(   23) = (   0.1666667   0.4811252   0.2060637), wk =   0.2222222
        k(   24) = (   0.1666667   0.4811252  -0.3090955), wk =   0.1111111
        k(   25) = (   0.3333333   0.5773503   0.0000000), wk =   0.0185185
        k(   26) = (   0.3333333   0.5773503   0.1030318), wk =   0.0370370
        k(   27) = (   0.3333333   0.5773503   0.2060637), wk =   0.0370370
        k(   28) = (   0.3333333   0.5773503  -0.3090955), wk =   0.0185185

     Dense  grid:    80615 G-vectors     FFT dimensions: (  48,  48,  80)

     Estimated max dynamical RAM per process >      70.39 MB

     Estimated total dynamical RAM >       1.10 GB

     Check: negative core charge=   -0.000325

     Initial potential from superposition of free atoms

     starting charge     171.9963, renormalised to     176.0000

     negative rho (up, down):  5.237E-03 0.000E+00
     Starting wfcs are  144 randomized atomic wfcs
     Checking if some PAW data can be deallocated... 

     total cpu time spent up to now is        3.4 secs

     per-process dynamical memory:   170.5 Mb

     Self-consistent Calculation

     iteration #  1     ecut=    90.00 Ry     beta= 0.70
     Davidson diagonalization with overlap
     ethr =  1.00E-02,  avg # of iterations =  2.0

     negative rho (up, down):  2.286E-03 0.000E+00

     total cpu time spent up to now is        9.5 secs

     total energy              =   -3017.01230585 Ry
     estimated scf accuracy    <     116.57980034 Ry

     iteration #  2     ecut=    90.00 Ry     beta= 0.70
     Davidson diagonalization with overlap
     ethr =  1.00E-02,  avg # of iterations =  6.7

     total cpu time spent up to now is       22.8 secs

     total energy              =   -3076.01263552 Ry
     estimated scf accuracy    <     699.79776921 Ry

     iteration #  3     ecut=    90.00 Ry     beta= 0.70
     Davidson diagonalization with overlap
     ethr =  1.00E-02,  avg # of iterations =  5.2

     total cpu time spent up to now is       32.9 secs

     total energy              =   -3120.96987257 Ry
     estimated scf accuracy    <      91.52778424 Ry

     iteration #  4     ecut=    90.00 Ry     beta= 0.70
     Davidson diagonalization with overlap
     ethr =  1.00E-02,  avg # of iterations =  1.2

     negative rho (up, down):  6.512E-05 0.000E+00

     total cpu time spent up to now is       37.8 secs

     total energy              =   -3116.54164576 Ry
     estimated scf accuracy    <      54.50556414 Ry

     iteration #  5     ecut=    90.00 Ry     beta= 0.70
     Davidson diagonalization with overlap
     ethr =  1.00E-02,  avg # of iterations =  1.8

     negative rho (up, down):  5.942E-04 0.000E+00

     total cpu time spent up to now is       43.0 secs

     total energy              =   -3115.20339351 Ry
     estimated scf accuracy    <      42.02301731 Ry

     iteration #  6     ecut=    90.00 Ry     beta= 0.70
     Davidson diagonalization with overlap
     ethr =  1.00E-02,  avg # of iterations =  1.0

     negative rho (up, down):  1.535E-03 0.000E+00

     total cpu time spent up to now is       47.7 secs

     total energy              =   -3113.68429538 Ry
     estimated scf accuracy    <      26.07195356 Ry

     iteration #  7     ecut=    90.00 Ry     beta= 0.70
     Davidson diagonalization with overlap
     ethr =  1.00E-02,  avg # of iterations =  1.0

     negative rho (up, down):  2.837E-03 0.000E+00

     total cpu time spent up to now is       52.5 secs

     total energy              =   -3111.36572119 Ry
     estimated scf accuracy    <      18.34815264 Ry

     iteration #  8     ecut=    90.00 Ry     beta= 0.70
     Davidson diagonalization with overlap
     ethr =  1.00E-02,  avg # of iterations =  1.0

     negative rho (up, down):  3.125E-03 0.000E+00

     total cpu time spent up to now is       57.3 secs

     total energy              =   -3111.50567184 Ry
     estimated scf accuracy    <       6.21860498 Ry

     iteration #  9     ecut=    90.00 Ry     beta= 0.70
     Davidson diagonalization with overlap
     ethr =  3.53E-03,  avg # of iterations =  1.8

     negative rho (up, down):  3.615E-03 0.000E+00

     total cpu time spent up to now is       62.5 secs

     total energy              =   -3111.25414909 Ry
     estimated scf accuracy    <       4.44681666 Ry

     iteration # 10     ecut=    90.00 Ry     beta= 0.70
     Davidson diagonalization with overlap
     ethr =  2.53E-03,  avg # of iterations =  2.1

     negative rho (up, down):  4.804E-03 0.000E+00

     total cpu time spent up to now is       67.9 secs

     total energy              =   -3110.92636688 Ry
     estimated scf accuracy    <       1.53983877 Ry

     iteration # 11     ecut=    90.00 Ry     beta= 0.70
     Davidson diagonalization with overlap
     ethr =  8.75E-04,  avg # of iterations =  5.2

     negative rho (up, down):  4.328E-03 0.000E+00

     total cpu time spent up to now is       76.9 secs

     total energy              =   -3111.29978298 Ry
     estimated scf accuracy    <       7.23961171 Ry

     iteration # 12     ecut=    90.00 Ry     beta= 0.70
     Davidson diagonalization with overlap
     ethr =  8.75E-04,  avg # of iterations =  1.1

     negative rho (up, down):  3.469E-03 0.000E+00

     total cpu time spent up to now is       81.7 secs

     total energy              =   -3111.11030836 Ry
     estimated scf accuracy    <       1.48368670 Ry

     iteration # 13     ecut=    90.00 Ry     beta= 0.70
     Davidson diagonalization with overlap
     ethr =  8.43E-04,  avg # of iterations =  3.2

     negative rho (up, down):  3.823E-03 0.000E+00

     total cpu time spent up to now is       88.2 secs

     total energy              =   -3111.41337618 Ry
     estimated scf accuracy    <       1.48380158 Ry

     iteration # 14     ecut=    90.00 Ry     beta= 0.70
     Davidson diagonalization with overlap
     ethr =  8.43E-04,  avg # of iterations =  1.0

     negative rho (up, down):  4.039E-03 0.000E+00

     total cpu time spent up to now is       93.0 secs

     total energy              =   -3111.34833797 Ry
     estimated scf accuracy    <       0.88168892 Ry

     iteration # 15     ecut=    90.00 Ry     beta= 0.70
     Davidson diagonalization with overlap
     ethr =  5.01E-04,  avg # of iterations =  1.2

     negative rho (up, down):  4.071E-03 0.000E+00

     total cpu time spent up to now is       97.8 secs

     total energy              =   -3111.36538870 Ry
     estimated scf accuracy    <       0.12982979 Ry

     iteration # 16     ecut=    90.00 Ry     beta= 0.70
     Davidson diagonalization with overlap
     ethr =  7.38E-05,  avg # of iterations =  2.3

     negative rho (up, down):  4.090E-03 0.000E+00

     total cpu time spent up to now is      103.2 secs

     total energy              =   -3111.36596258 Ry
     estimated scf accuracy    <       0.07266206 Ry

     iteration # 17     ecut=    90.00 Ry     beta= 0.70
     Davidson diagonalization with overlap
     ethr =  4.13E-05,  avg # of iterations =  1.8

     negative rho (up, down):  4.139E-03 0.000E+00

     total cpu time spent up to now is      108.3 secs

     total energy              =   -3111.36209333 Ry
     estimated scf accuracy    <       0.06923458 Ry

     iteration # 18     ecut=    90.00 Ry     beta= 0.70
     Davidson diagonalization with overlap
     ethr =  3.93E-05,  avg # of iterations =  1.5

     negative rho (up, down):  4.188E-03 0.000E+00

     total cpu time spent up to now is      113.3 secs

     total energy              =   -3111.36088352 Ry
     estimated scf accuracy    <       0.02167824 Ry

     iteration # 19     ecut=    90.00 Ry     beta= 0.70
     Davidson diagonalization with overlap
     ethr =  1.23E-05,  avg # of iterations =  5.6

     negative rho (up, down):  4.191E-03 0.000E+00

     total cpu time spent up to now is      120.2 secs

     total energy              =   -3111.36247949 Ry
     estimated scf accuracy    <       0.00005586 Ry

     iteration # 20     ecut=    90.00 Ry     beta= 0.70
     Davidson diagonalization with overlap
     ethr =  3.17E-08,  avg # of iterations =  8.9

     negative rho (up, down):  4.193E-03 0.000E+00

     total cpu time spent up to now is      136.7 secs

     total energy              =   -3111.36279719 Ry
     estimated scf accuracy    <       0.00005286 Ry

     iteration # 21     ecut=    90.00 Ry     beta= 0.70
     Davidson diagonalization with overlap
     ethr =  3.00E-08,  avg # of iterations =  1.0

     negative rho (up, down):  4.195E-03 0.000E+00

     total cpu time spent up to now is      141.4 secs

     total energy              =   -3111.36279914 Ry
     estimated scf accuracy    <       0.00002406 Ry

     iteration # 22     ecut=    90.00 Ry     beta= 0.70
     Davidson diagonalization with overlap
     ethr =  1.37E-08,  avg # of iterations =  1.2

     negative rho (up, down):  4.196E-03 0.000E+00

     total cpu time spent up to now is      146.2 secs

     total energy              =   -3111.36280225 Ry
     estimated scf accuracy    <       0.00003464 Ry

     iteration # 23     ecut=    90.00 Ry     beta= 0.70
     Davidson diagonalization with overlap
     ethr =  1.37E-08,  avg # of iterations =  1.0

     negative rho (up, down):  4.195E-03 0.000E+00

     total cpu time spent up to now is      151.0 secs

     total energy              =   -3111.36279805 Ry
     estimated scf accuracy    <       0.00005960 Ry

     iteration # 24     ecut=    90.00 Ry     beta= 0.70
     Davidson diagonalization with overlap
     ethr =  1.37E-08,  avg # of iterations =  1.1

     negative rho (up, down):  4.194E-03 0.000E+00

     total cpu time spent up to now is      155.7 secs

     total energy              =   -3111.36279810 Ry
     estimated scf accuracy    <       0.00001060 Ry

     iteration # 25     ecut=    90.00 Ry     beta= 0.70
     Davidson diagonalization with overlap
     ethr =  6.02E-09,  avg # of iterations =  1.7

     negative rho (up, down):  4.194E-03 0.000E+00

     total cpu time spent up to now is      160.9 secs

     total energy              =   -3111.36279864 Ry
     estimated scf accuracy    <       0.00000023 Ry

     iteration # 26     ecut=    90.00 Ry     beta= 0.70
     Davidson diagonalization with overlap
     ethr =  1.33E-10,  avg # of iterations =  5.5

     negative rho (up, down):  4.194E-03 0.000E+00

     total cpu time spent up to now is      170.8 secs

     total energy              =   -3111.36279879 Ry
     estimated scf accuracy    <       0.00000082 Ry

     iteration # 27     ecut=    90.00 Ry     beta= 0.70
     Davidson diagonalization with overlap
     ethr =  1.33E-10,  avg # of iterations =  1.6

     negative rho (up, down):  4.194E-03 0.000E+00

     total cpu time spent up to now is      175.9 secs

     total energy              =   -3111.36279881 Ry
     estimated scf accuracy    <       0.00000008 Ry

     iteration # 28     ecut=    90.00 Ry     beta= 0.70
     Davidson diagonalization with overlap
     ethr =  4.32E-11,  avg # of iterations =  3.3

     negative rho (up, down):  4.194E-03 0.000E+00

     total cpu time spent up to now is      182.2 secs

     End of self-consistent calculation

          k = 0.0000 0.0000 0.0000 ( 15507 PWs)   bands (ev):

   -70.7734 -70.7512 -70.7136 -70.6913 -70.6883 -70.6883 -70.6882 -70.6882
   -40.8788 -40.8646 -40.8294 -40.8140 -37.1873 -37.1175 -37.0076 -36.8863
   -36.8863 -36.8663 -36.8663 -36.8519 -36.8519 -36.7947 -36.7846 -36.7425
   -36.7425 -36.7357 -36.7357 -36.6419 -36.6376 -36.6376 -36.6371 -36.6371
   -36.6288 -36.6288 -36.6126 -36.6126 -17.1712 -17.1712 -17.1572 -17.1572
   -17.1560 -17.1544 -17.0155 -17.0125 -16.9980 -16.9980 -16.9834 -16.9834
     8.6277  10.6575  11.4313  12.0251  12.5177  12.6160  12.7758  12.7758
    12.9952  12.9952  13.2091  13.2964  13.3959  13.3959  13.8298  13.8298
    13.9751  13.9751  14.2082  14.2959  14.2959  14.3261  14.3261  14.7859
    14.7859  14.9137  15.3959  15.3959  15.5159  15.5159  15.8307  15.9197
    15.9197  15.9206  15.9206  16.0672  16.0672  16.0694  16.0820  16.1434
    16.1687  16.1687  16.2335  16.2879  16.2879  16.7357  16.7357  16.7506
    16.9892  16.9892  17.2962  17.2962  17.4953  17.4953  17.5191  17.5194
    17.7885  17.7885

          k = 0.0000 0.0000 0.1030 ( 15471 PWs)   bands (ev):

   -70.7723 -70.7535 -70.7114 -70.6924 -70.6882 -70.6882 -70.6882 -70.6882
   -40.8781 -40.8660 -40.8279 -40.8148 -37.1843 -37.1261 -36.9943 -36.8858
   -36.8858 -36.8709 -36.8709 -36.8443 -36.8443 -36.8339 -36.7642 -36.7642
   -36.7484 -36.7143 -36.7143 -36.6465 -36.6447 -36.6447 -36.6332 -36.6332
   -36.6289 -36.6289 -36.6126 -36.6126 -17.1703 -17.1703 -17.1582 -17.1582
   -17.1557 -17.1542 -17.0156 -17.0129 -16.9969 -16.9969 -16.9843 -16.9843
     8.7045  10.3077  11.7218  12.0259  12.4162  12.7891  12.7891  12.8064
    12.9776  12.9776  13.0544  13.4006  13.4224  13.4224  13.8089  13.8089
    13.9558  13.9558  14.1868  14.1868  14.2758  14.4685  14.4685  14.8417
    14.8417  14.9485  15.3219  15.3219  15.4278  15.4278  15.7072  15.8546
    15.9335  15.9335  16.0285  16.0285  16.0596  16.0596  16.0861  16.1392
    16.1731  16.1731  16.2268  16.2268  16.3717  16.8047  16.8047  16.9678
    16.9809  16.9809  17.2882  17.2882  17.4971  17.4971  17.5191  17.5194
    17.7719  17.7719

          k = 0.0000 0.0000 0.2061 ( 15471 PWs)   bands (ev):

   -70.7691 -70.7586 -70.7062 -70.6956 -70.6882 -70.6882 -70.6882 -70.6882
   -40.8760 -40.8692 -40.8245 -40.8171 -37.1756 -37.1439 -36.9627 -36.8842
   -36.8842 -36.8788 -36.8768 -36.8768 -36.8292 -36.8292 -36.7882 -36.7882
   -36.7124 -36.6916 -36.6916 -36.6603 -36.6561 -36.6561 -36.6309 -36.6309
   -36.6292 -36.6292 -36.6126 -36.6126 -17.1679 -17.1679 -17.1609 -17.1609
   -17.1549 -17.1541 -17.0155 -17.0140 -16.9941 -16.9941 -16.9868 -16.9868
     8.9311   9.7722  11.9900  12.0279  12.4664  12.8258  12.8258  12.8655
    12.9332  12.9332  13.0681  13.4181  13.4950  13.4950  13.7204  13.7204
    13.9629  13.9629  14.0896  14.0896  14.5033  14.6597  14.6597  14.9502
    14.9502  15.0344  15.1583  15.1583  15.2858  15.2858  15.4703  15.4939
    15.9656  15.9656  16.0302  16.0302  16.0901  16.0901  16.0972  16.1279
    16.1292  16.1292  16.3345  16.3345  16.6154  16.8067  16.8067  17.0202
    17.0202  17.2499  17.2499  17.4018  17.5192  17.5465  17.5465  17.5660
    17.7209  17.7209

          k = 0.0000 0.0000-0.3091 ( 15500 PWs)   bands (ev):

   -70.7643 -70.7643 -70.7005 -70.7005 -70.6882 -70.6882 -70.6882 -70.6882
   -40.8728 -40.8728 -40.8206 -40.8206 -37.1616 -37.1616 -36.9226 -36.9226
   -36.8813 -36.8813 -36.8813 -36.8813 -36.8102 -36.8102 -36.8102 -36.8102
   -36.6826 -36.6825 -36.6719 -36.6719 -36.6719 -36.6719 -36.6298 -36.6298
   -36.6298 -36.6298 -36.6126 -36.6126 -17.1644 -17.1644 -17.1644 -17.1644
   -17.1543 -17.1543 -17.0150 -17.0150 -16.9904 -16.9904 -16.9904 -16.9904
     9.2951   9.2951  12.0299  12.0299  12.6723  12.6723  12.8778  12.8778
    12.8778  12.8778  13.2941  13.2941  13.6008  13.6008  13.6008  13.6008
    14.0136  14.0136  14.0136  14.0136  14.8700  14.8700  14.8700  14.8700
    14.8785  14.8785  15.1561  15.1561  15.1561  15.1561  15.3189  15.3189
    16.0056  16.0056  16.0056  16.0056  16.0771  16.0771  16.0771  16.0771
    16.1125  16.1125  16.5948  16.5948  16.5948  16.5948  16.9896  16.9896
    17.1566  17.1566  17.1566  17.1566  17.5193  17.5193  17.6384  17.6384
    17.6384  17.6384

          k = 0.0000 0.1925 0.0000 ( 15506 PWs)   bands (ev):

   -70.7699 -70.7476 -70.7136 -70.7004 -70.6919 -70.6883 -70.6882 -70.6828
   -40.8761 -40.8617 -40.8324 -40.8170 -37.1657 -37.0962 -37.0051 -36.8854
   -36.8726 -36.8723 -36.8560 -36.8520 -36.8511 -36.7880 -36.7840 -36.7496
   -36.7424 -36.7365 -36.7359 -36.6553 -36.6499 -36.6459 -36.6405 -36.6371
   -36.6366 -36.6365 -36.6198 -36.6188 -17.1856 -17.1756 -17.1611 -17.1582
   -17.1529 -17.1334 -17.0317 -17.0083 -17.0032 -16.9938 -16.9792 -16.9757
     8.8937  10.8604  11.6095  12.1369  12.5577  12.6106  12.7208  12.8179
    12.9073  13.1596  13.1666  13.4061  13.4502  13.4711  13.7852  13.8830
    13.9756  14.0786  14.2465  14.2898  14.2959  14.3274  14.3680  14.6391
    14.7044  14.7198  15.0297  15.2243  15.2303  15.2870  15.5050  15.5765
    15.7677  15.8618  15.8875  15.9636  16.0114  16.0739  16.1241  16.1952
    16.2285  16.3061  16.3368  16.3634  16.5013  16.6351  16.8063  16.8991
    16.9062  17.0183  17.2932  17.3094  17.3371  17.5284  17.5513  17.5529
    17.5807  17.9216

          k = 0.0000 0.1925 0.1030 ( 15503 PWs)   bands (ev):

   -70.7688 -70.7499 -70.7117 -70.7007 -70.6915 -70.6883 -70.6882 -70.6836
   -40.8754 -40.8631 -40.8309 -40.8177 -37.1628 -37.1054 -36.9917 -36.8850
   -36.8782 -36.8722 -36.8596 -36.8482 -36.8404 -36.8257 -36.7688 -36.7637
   -36.7476 -36.7186 -36.7150 -36.6567 -36.6510 -36.6493 -36.6424 -36.6391
   -36.6369 -36.6365 -36.6196 -36.6188 -17.1841 -17.1747 -17.1622 -17.1616
   -17.1500 -17.1343 -17.0307 -17.0124 -16.9989 -16.9927 -16.9801 -16.9770
     8.9686  10.5249  11.8848  12.1380  12.4625  12.6637  12.7877  12.8369
    12.9438  13.1290  13.1397  13.3769  13.4810  13.5059  13.7813  13.8696
    13.9447  14.0436  14.1401  14.2218  14.3271  14.4486  14.5062  14.6996
    14.7388  14.7688  15.0306  15.1724  15.1895  15.2613  15.5147  15.5638
    15.6850  15.8130  15.8631  15.9338  16.0138  16.0439  16.1280  16.1741
    16.2135  16.2974  16.3139  16.4053  16.5087  16.6909  16.7934  16.9093
    16.9650  17.1005  17.2910  17.3264  17.3372  17.4749  17.5497  17.5756
    17.6316  17.8972

          k = 0.0000 0.1925 0.2061 ( 15491 PWs)   bands (ev):

   -70.7656 -70.7551 -70.7077 -70.7018 -70.6904 -70.6882 -70.6882 -70.6857
   -40.8733 -40.8664 -40.8274 -40.8200 -37.1544 -37.1234 -36.9612 -36.8947
   -36.8811 -36.8710 -36.8651 -36.8596 -36.8329 -36.8259 -36.7921 -36.7868
   -36.7146 -36.6988 -36.6929 -36.6621 -36.6590 -36.6579 -36.6451 -36.6431
   -36.6367 -36.6365 -36.6193 -36.6189 -17.1800 -17.1722 -17.1675 -17.1649
   -17.1455 -17.1369 -17.0279 -17.0180 -16.9926 -16.9899 -16.9826 -16.9807
     9.1895  10.0073  12.1262  12.1460  12.4909  12.6907  12.8105  12.8907
    13.0331  13.0560  13.1212  13.3770  13.5250  13.5608  13.7088  13.7941
    13.9522  14.0223  14.0624  14.1289  14.4544  14.6603  14.6801  14.7928
    14.8428  14.8488  14.9962  15.0844  15.1025  15.1803  15.3548  15.4407
    15.6794  15.8123  15.8626  15.8999  15.9275  16.0318  16.0623  16.1031
    16.2076  16.3026  16.3341  16.5101  16.5672  16.6925  16.7420  16.8259
    17.0809  17.2528  17.2704  17.3466  17.3967  17.5172  17.5430  17.6203
    17.6293  17.8275

          k = 0.0000 0.1925-0.3091 ( 15474 PWs)   bands (ev):

   -70.7608 -70.7608 -70.7040 -70.7040 -70.6883 -70.6883 -70.6882 -70.6882
   -40.8702 -40.8702 -40.8234 -40.8234 -37.1409 -37.1409 -36.9252 -36.9252
   -36.8756 -36.8756 -36.8687 -36.8687 -36.8139 -36.8139 -36.8079 -36.8079
   -36.6926 -36.6926 -36.6738 -36.6738 -36.6673 -36.6673 -36.6451 -36.6451
   -36.6365 -36.6365 -36.6190 -36.6190 -17.1740 -17.1740 -17.1686 -17.1686
   -17.1409 -17.1409 -17.0234 -17.0234 -16.9862 -16.9862 -16.9862 -16.9862
     9.5440   9.5440  12.1496  12.1496  12.6335  12.6335  12.8992  12.8992
    12.9691  12.9691  13.2945  13.2945  13.5945  13.5945  13.6729  13.6729
    14.0045  14.0045  14.0599  14.0599  14.6792  14.6792  14.8263  14.8263
    14.8898  14.8898  14.9631  14.9631  15.1015  15.1015  15.2785  15.2785
    15.7932  15.7932  15.8517  15.8517  15.9330  15.9330  16.0617  16.0617
    16.2559  16.2559  16.4930  16.4930  16.6579  16.6579  16.6916  16.6916
    17.1841  17.1841  17.3528  17.3528  17.4757  17.4757  17.5442  17.5442
    17.7260  17.7260

          k = 0.0000 0.3849 0.0000 ( 15504 PWs)   bands (ev):

   -70.7611 -70.7384 -70.7136 -70.7128 -70.7012 -70.6883 -70.6882 -70.6792
   -40.8689 -40.8541 -40.8402 -40.8246 -37.1136 -37.0450 -36.9998 -36.9025
   -36.8715 -36.8623 -36.8521 -36.8385 -36.8107 -36.7823 -36.7785 -36.7599
   -36.7424 -36.7403 -36.7370 -36.7101 -36.6824 -36.6815 -36.6669 -36.6471
   -36.6371 -36.6282 -36.6251 -36.6218 -17.1944 -17.1839 -17.1685 -17.1672
   -17.1429 -17.1056 -17.0572 -17.0149 -16.9989 -16.9861 -16.9713 -16.9698
     9.6422  11.3646  12.0278  12.0566  12.4091  12.6037  12.6569  12.9431
    13.0121  13.0805  13.5620  13.5796  13.6012  13.6413  13.7359  13.9303
    14.0053  14.1459  14.2492  14.2858  14.3342  14.3767  14.4156  14.4481
    14.4950  14.5476  14.5479  14.7752  14.7894  14.8926  14.9798  15.0798
    15.1064  15.4017  15.7189  16.0033  16.0859  16.1458  16.1590  16.2024
    16.2134  16.3360  16.4165  16.6333  16.6449  16.7498  16.7541  16.8471
    16.8602  17.0249  17.0328  17.3459  17.3967  17.6224  17.6818  17.6940
    17.7428  18.2445

          k = 0.0000 0.3849 0.1030 ( 15519 PWs)   bands (ev):

   -70.7600 -70.7408 -70.7134 -70.7128 -70.6990 -70.6883 -70.6882 -70.6803
   -40.8683 -40.8560 -40.8382 -40.8253 -37.1111 -37.0566 -36.9854 -36.9055
   -36.8737 -36.8546 -36.8507 -36.8390 -36.8104 -36.8091 -36.7788 -36.7606
   -36.7501 -36.7297 -36.7191 -36.7069 -36.6821 -36.6791 -36.6661 -36.6502
   -36.6402 -36.6316 -36.6244 -36.6219 -17.1926 -17.1829 -17.1696 -17.1686
   -17.1415 -17.1097 -17.0532 -17.0179 -16.9960 -16.9850 -16.9722 -16.9714
     9.7109  11.0970  11.9877  12.3300  12.3637  12.6195  12.6856  12.9481
    12.9724  13.1488  13.4710  13.4967  13.6660  13.7199  13.7442  13.9154
    13.9945  14.1022  14.2124  14.2806  14.3031  14.3084  14.3952  14.4899
    14.5516  14.6021  14.6615  14.7772  14.8000  14.9510  14.9788  15.0588
    15.1282  15.4204  15.7189  15.9014  16.0236  16.0670  16.1071  16.1649
    16.2214  16.3829  16.3971  16.6393  16.6561  16.7152  16.7416  16.8500
    16.8841  17.0732  17.1764  17.2962  17.3753  17.4941  17.6517  17.7214
    17.9727  18.1982

          k = 0.0000 0.3849 0.2061 ( 15519 PWs)   bands (ev):

   -70.7568 -70.7461 -70.7131 -70.7129 -70.6940 -70.6883 -70.6883 -70.6835
   -40.8664 -40.8597 -40.8343 -40.8273 -37.1037 -37.0752 -36.9592 -36.9154
   -36.8714 -36.8473 -36.8423 -36.8406 -36.8368 -36.8039 -36.8000 -36.7793
   -36.7334 -36.7234 -36.7017 -36.6929 -36.6843 -36.6694 -36.6630 -36.6595
   -36.6477 -36.6414 -36.6233 -36.6221 -17.1874 -17.1802 -17.1734 -17.1726
   -17.1369 -17.1189 -17.0441 -17.0249 -16.9896 -16.9822 -16.9758 -16.9748
     9.9127  10.6486  12.0405  12.2544  12.5983  12.6629  12.7515  12.8997
    13.0562  13.2044  13.3307  13.3780  13.7508  13.7570  13.8104  13.8989
    13.9463  14.0442  14.1838  14.1980  14.2451  14.3271  14.4564  14.5334
    14.5865  14.6276  14.7253  14.8490  14.8600  14.9717  15.0046  15.0564
    15.2621  15.5019  15.7011  15.7708  15.8610  15.9383  15.9543  16.0141
    16.2651  16.3582  16.4470  16.6333  16.6879  16.7108  16.7140  16.8515
    16.9527  17.1369  17.1760  17.3121  17.3842  17.5231  17.6460  17.8188
    17.9924  18.0920

          k = 0.0000 0.3849-0.3091 ( 15504 PWs)   bands (ev):

   -70.7519 -70.7519 -70.7130 -70.7130 -70.6883 -70.6883 -70.6883 -70.6883
   -40.8635 -40.8635 -40.8304 -40.8304 -37.0915 -37.0915 -36.9337 -36.9337
   -36.8608 -36.8608 -36.8435 -36.8435 -36.8209 -36.8209 -36.7941 -36.7941
   -36.7253 -36.7253 -36.6900 -36.6900 -36.6745 -36.6745 -36.6565 -36.6565
   -36.6552 -36.6552 -36.6225 -36.6225 -17.1804 -17.1804 -17.1765 -17.1765
   -17.1288 -17.1288 -17.0340 -17.0340 -16.9823 -16.9823 -16.9784 -16.9784
    10.2343  10.2343  12.1358  12.1358  12.6829  12.6829  12.8421  12.8421
    13.1825  13.1825  13.2732  13.2732  13.7801  13.7801  13.8513  13.8513
    13.9832  13.9832  14.1982  14.1982  14.2560  14.2560  14.5155  14.5155
    14.6089  14.6089  14.7931  14.7931  14.9606  14.9606  15.0330  15.0330
    15.5170  15.5170  15.6621  15.6621  15.8018  15.8018  15.9043  15.9043
    16.3230  16.3230  16.5482  16.5482  16.6687  16.6687  16.8019  16.8019
    17.0566  17.0566  17.2178  17.2178  17.5428  17.5428  17.7573  17.7573
    17.9600  17.9600

          k = 0.0000-0.5774 0.0000 ( 15546 PWs)   bands (ev):

   -70.7549 -70.7313 -70.7201 -70.7136 -70.7083 -70.6883 -70.6883 -70.6781
   -40.8631 -40.8480 -40.8463 -40.8307 -37.0794 -37.0088 -36.9971 -36.9295
   -36.8649 -36.8597 -36.8522 -36.8144 -36.7809 -36.7788 -36.7736 -36.7599
   -36.7556 -36.7425 -36.7391 -36.7385 -36.7179 -36.6967 -36.6889 -36.6508
   -36.6371 -36.6260 -36.6244 -36.6222 -17.1956 -17.1878 -17.1728 -17.1720
   -17.1364 -17.0926 -17.0699 -17.0220 -16.9933 -16.9824 -16.9693 -16.9675
    10.4915  11.0716  12.0062  12.1917  12.3623  12.6563  12.8112  12.8880
    13.0231  13.2020  13.6271  13.6547  13.7151  13.9032  13.9630  13.9696
    13.9928  14.0278  14.1217  14.2893  14.3365  14.3928  14.3993  14.4090
    14.4492  14.4909  14.5052  14.5449  14.5533  14.5606  14.6947  14.7474
    14.7823  15.0578  15.7583  16.0533  16.0774  16.1298  16.1540  16.2254
    16.2593  16.3006  16.3081  16.5692  16.6464  16.8414  16.9119  16.9643
    17.0344  17.0669  17.1342  17.1552  17.4197  17.5409  17.5679  17.6770
    17.8546  18.2100

          k = 0.0000-0.5774 0.1030 ( 15534 PWs)   bands (ev):

   -70.7538 -70.7336 -70.7201 -70.7166 -70.7030 -70.6883 -70.6883 -70.6793
   -40.8626 -40.8515 -40.8428 -40.8313 -37.0772 -37.0256 -36.9790 -36.9305
   -36.8672 -36.8520 -36.8498 -36.8170 -36.8008 -36.7840 -36.7732 -36.7585
   -36.7556 -36.7531 -36.7297 -36.7234 -36.7181 -36.6891 -36.6850 -36.6541
   -36.6406 -36.6280 -36.6251 -36.6223 -17.1937 -17.1868 -17.1733 -17.1731
   -17.1361 -17.1009 -17.0618 -17.0233 -16.9919 -16.9814 -16.9709 -16.9685
    10.5479  11.1136  11.7631  12.0929  12.5626  12.6711  12.7989  12.8865
    13.0582  13.2089  13.5908  13.6517  13.7056  13.9400  13.9606  13.9841
    14.0084  14.0105  14.0899  14.2157  14.2912  14.3718  14.4037  14.4168
    14.4301  14.4482  14.5002  14.5277  14.6568  14.6793  14.6865  14.7654
    14.8854  15.1260  15.7589  15.9793  16.0107  16.0956  16.1232  16.1458
    16.2155  16.2161  16.4927  16.6427  16.6904  16.7182  16.8140  16.8679
    16.9972  17.1701  17.2006  17.2825  17.3456  17.5034  17.7147  17.7458
    17.8475  18.1979

          k = 0.0000-0.5774 0.2061 ( 15496 PWs)   bands (ev):

   -70.7504 -70.7391 -70.7199 -70.7188 -70.6954 -70.6883 -70.6883 -70.6828
   -40.8611 -40.8554 -40.8388 -40.8329 -37.0705 -37.0442 -36.9580 -36.9341
   -36.8639 -36.8433 -36.8381 -36.8279 -36.8242 -36.8017 -36.7716 -36.7626
   -36.7567 -36.7557 -36.7231 -36.7187 -36.6999 -36.6745 -36.6723 -36.6637
   -36.6493 -36.6382 -36.6238 -36.6225 -17.1885 -17.1841 -17.1761 -17.1760
   -17.1334 -17.1141 -17.0488 -17.0282 -16.9876 -16.9785 -16.9753 -16.9711
    10.7113  11.1674  11.4906  11.8540  12.6722  12.7619  12.8135  12.9078
    13.1594  13.2568  13.4850  13.4944  13.7885  13.9388  13.9391  13.9578
    13.9821  14.0267  14.1345  14.1646  14.2990  14.3824  14.3918  14.3924
    14.4321  14.4584  14.4641  14.5113  14.6520  14.6716  14.8058  14.8093
    15.1718  15.3328  15.7340  15.7939  15.8885  15.9410  15.9968  16.0609
    16.2140  16.2366  16.5882  16.5948  16.7181  16.7531  16.8212  16.8238
    16.8396  17.1864  17.2759  17.3450  17.4794  17.4975  17.7866  17.8945
    17.8956  18.0924

          k = 0.0000-0.5774-0.3091 ( 15528 PWs)   bands (ev):

   -70.7453 -70.7453 -70.7196 -70.7196 -70.6883 -70.6883 -70.6883 -70.6883
   -40.8586 -40.8586 -40.8354 -40.8354 -37.0594 -37.0594 -36.9425 -36.9425
   -36.8507 -36.8507 -36.8340 -36.8340 -36.8208 -36.8208 -36.7685 -36.7685
   -36.7560 -36.7560 -36.7201 -36.7201 -36.6792 -36.6792 -36.6614 -36.6614
   -36.6538 -36.6538 -36.6230 -36.6230 -17.1818 -17.1818 -17.1802 -17.1802
   -17.1257 -17.1257 -17.0370 -17.0370 -16.9814 -16.9814 -16.9747 -16.9747
    10.9587  10.9587  11.5947  11.5947  12.7141  12.7141  12.9127  12.9127
    13.3136  13.3136  13.3562  13.3562  13.8768  13.8768  13.9352  13.9352
    13.9634  13.9634  14.2113  14.2113  14.3592  14.3592  14.3816  14.3816
    14.4145  14.4145  14.4899  14.4899  14.6545  14.6545  14.8400  14.8400
    15.5048  15.5048  15.5869  15.5869  15.8400  15.8400  15.9717  15.9717
    16.2352  16.2352  16.6378  16.6378  16.6664  16.6664  16.8233  16.8233
    16.9984  16.9984  17.3426  17.3426  17.6615  17.6615  17.6868  17.6868
    18.0494  18.0494

          k = 0.1667 0.2887 0.0000 ( 15488 PWs)   bands (ev):

   -70.7636 -70.7411 -70.7136 -70.7096 -70.6985 -70.6883 -70.6882 -70.6799
   -40.8710 -40.8563 -40.8379 -40.8224 -37.1276 -37.0588 -37.0012 -36.8916
   -36.8850 -36.8603 -36.8530 -36.8449 -36.8212 -36.7828 -36.7789 -36.7583
   -36.7435 -36.7377 -36.7377 -36.6997 -36.6793 -36.6508 -36.6455 -36.6437
   -36.6385 -36.6338 -36.6321 -36.6301 -17.1917 -17.1844 -17.1686 -17.1645
   -17.1430 -17.1104 -17.0521 -17.0141 -17.0015 -16.9864 -16.9720 -16.9714
     9.4024  11.2314  11.9214  12.2380  12.5197  12.5469  12.6127  12.8746
    13.0087  13.0247  13.3781  13.5287  13.5903  13.6534  13.7183  13.9134
    13.9580  14.1645  14.2222  14.3007  14.3445  14.4195  14.4408  14.4455
    14.5283  14.5933  14.6362  14.7915  14.9309  15.0360  15.1462  15.2976
    15.3470  15.4940  15.7631  15.8418  15.9449  16.0839  16.1840  16.2389
    16.2393  16.3312  16.5334  16.5520  16.6010  16.6596  16.7732  16.9224
    16.9522  17.0979  17.2267  17.2856  17.3015  17.3155  17.7467  17.7888
    17.7982  17.8748

          k = 0.1667 0.2887 0.1030 ( 15495 PWs)   bands (ev):

   -70.7625 -70.7434 -70.7127 -70.7097 -70.6970 -70.6883 -70.6882 -70.6809
   -40.8704 -40.8580 -40.8362 -40.8231 -37.1250 -37.0695 -36.9872 -36.8967
   -36.8836 -36.8551 -36.8522 -36.8441 -36.8190 -36.8144 -36.7742 -36.7647
   -36.7475 -36.7243 -36.7192 -36.6984 -36.6771 -36.6526 -36.6486 -36.6434
   -36.6402 -36.6353 -36.6320 -36.6315 -17.1899 -17.1835 -17.1698 -17.1662
   -17.1415 -17.1135 -17.0491 -17.0175 -16.9981 -16.9854 -16.9735 -16.9723
     9.4733  10.9273  12.1606  12.2397  12.5206  12.5323  12.5900  12.9873
    13.0022  13.0400  13.3301  13.4749  13.6209  13.6599  13.7325  13.9218
    13.9511  14.0929  14.1886  14.2448  14.3563  14.3818  14.4780  14.4890
    14.5928  14.6312  14.7337  14.8491  14.9071  15.0219  15.1793  15.2824
    15.3209  15.5045  15.7434  15.7799  15.9058  16.0451  16.1581  16.1889
    16.2021  16.3202  16.4227  16.6210  16.6397  16.7126  16.7448  16.9175
    16.9853  17.1510  17.2413  17.2893  17.3305  17.3467  17.6194  17.7624
    17.8339  17.9354

          k = 0.1667 0.2887 0.2061 ( 15507 PWs)   bands (ev):

   -70.7593 -70.7487 -70.7113 -70.7099 -70.6932 -70.6883 -70.6883 -70.6839
   -40.8684 -40.8616 -40.8324 -40.8252 -37.1172 -37.0880 -36.9596 -36.9097
   -36.8787 -36.8510 -36.8504 -36.8437 -36.8361 -36.8121 -36.7970 -36.7834
   -36.7263 -36.7139 -36.6986 -36.6909 -36.6703 -36.6590 -36.6566 -36.6460
   -36.6431 -36.6405 -36.6319 -36.6319 -17.1850 -17.1808 -17.1727 -17.1711
   -17.1368 -17.1208 -17.0418 -17.0244 -16.9915 -16.9825 -16.9778 -16.9749
     9.6821  10.4490  12.2516  12.3435  12.4830  12.5574  12.7140  12.9761
    13.0695  13.1502  13.2353  13.3757  13.6607  13.6783  13.7394  13.9038
    13.9760  14.0229  14.1338  14.1501  14.3313  14.4248  14.5637  14.5827
    14.6618  14.6650  14.8717  14.8737  14.9536  14.9971  15.1489  15.2523
    15.3616  15.5436  15.6666  15.7682  15.8424  15.9194  15.9753  16.0246
    16.1958  16.3040  16.4971  16.6135  16.6725  16.6931  16.7346  16.8546
    17.0985  17.2337  17.2702  17.3227  17.3771  17.4450  17.5450  17.6814
    17.7898  17.9450

          k = 0.1667 0.2887-0.3091 ( 15492 PWs)   bands (ev):

   -70.7544 -70.7544 -70.7104 -70.7104 -70.6883 -70.6883 -70.6883 -70.6883
   -40.8654 -40.8654 -40.8284 -40.8284 -37.1047 -37.1047 -36.9313 -36.9313
   -36.8677 -36.8677 -36.8487 -36.8487 -36.8184 -36.8184 -36.8000 -36.8000
   -36.7154 -36.7154 -36.6840 -36.6840 -36.6657 -36.6657 -36.6577 -36.6577
   -36.6424 -36.6424 -36.6319 -36.6319 -17.1786 -17.1786 -17.1763 -17.1763
   -17.1294 -17.1294 -17.0329 -17.0329 -16.9843 -16.9843 -16.9785 -16.9785
    10.0158  10.0158  12.2884  12.2884  12.5557  12.5557  12.8722  12.8722
    13.1367  13.1367  13.2813  13.2813  13.6730  13.6730  13.8021  13.8021
    14.0148  14.0148  14.1215  14.1215  14.3806  14.3806  14.6243  14.6243
    14.6736  14.6736  14.9216  14.9216  14.9631  14.9631  15.1609  15.1609
    15.5143  15.5143  15.7572  15.7572  15.7743  15.7743  15.8961  15.8961
    16.2552  16.2552  16.5753  16.5753  16.6750  16.6750  16.7674  16.7674
    17.2146  17.2146  17.2888  17.2888  17.4738  17.4738  17.5951  17.5951
    17.8177  17.8177

          k = 0.1667 0.4811 0.0000 ( 15511 PWs)   bands (ev):

   -70.7549 -70.7313 -70.7201 -70.7136 -70.7083 -70.6883 -70.6883 -70.6781
   -40.8631 -40.8479 -40.8464 -40.8308 -37.0748 -37.0056 -36.9971 -36.9319
   -36.8865 -36.8633 -36.8548 -36.8053 -36.7815 -36.7791 -36.7731 -36.7614
   -36.7573 -36.7466 -36.7432 -36.7317 -36.6931 -36.6876 -36.6740 -36.6476
   -36.6402 -36.6396 -36.6391 -36.6248 -17.1951 -17.1896 -17.1764 -17.1736
   -17.1279 -17.0858 -17.0752 -17.0300 -16.9921 -16.9790 -16.9736 -16.9633
    10.2969  11.5218  11.9254  12.3181  12.3324  12.6124  12.6625  12.8466
    12.8885  13.1386  13.6580  13.7113  13.7691  13.8310  13.8509  13.9118
    13.9202  14.0418  14.1934  14.2098  14.2401  14.3202  14.4139  14.4223
    14.4904  14.5100  14.5333  14.5579  14.6203  14.7150  14.8363  14.8574
    14.9941  15.1302  15.6607  15.7920  15.9452  15.9623  16.0859  16.1535
    16.4011  16.4330  16.4607  16.6078  16.6877  16.7273  16.8317  16.9557
    17.1308  17.1345  17.2127  17.2287  17.3290  17.4638  17.7298  17.7943
    17.9238  18.0318

          k = 0.1667 0.4811 0.1030 ( 15506 PWs)   bands (ev):

   -70.7538 -70.7336 -70.7201 -70.7166 -70.7030 -70.6883 -70.6883 -70.6793
   -40.8626 -40.8514 -40.8428 -40.8313 -37.0726 -37.0226 -36.9793 -36.9333
   -36.8843 -36.8589 -36.8523 -36.8087 -36.8002 -36.7847 -36.7754 -36.7677
   -36.7534 -36.7489 -36.7271 -36.7218 -36.6887 -36.6860 -36.6727 -36.6510
   -36.6433 -36.6399 -36.6379 -36.6279 -17.1937 -17.1882 -17.1777 -17.1736
   -17.1282 -17.0967 -17.0644 -17.0304 -16.9915 -16.9779 -16.9750 -16.9643
    10.3581  11.4772  11.7512  12.2590  12.5511  12.5632  12.6757  12.8283
    12.9685  13.1659  13.6010  13.6593  13.7894  13.8170  13.8918  13.9088
    13.9622  14.0464  14.0948  14.1597  14.2567  14.2745  14.3698  14.4485
    14.4603  14.5181  14.5460  14.5920  14.6538  14.7972  14.8592  14.9240
    15.0321  15.1670  15.6559  15.7585  15.8506  15.9826  16.0719  16.1181
    16.2696  16.3503  16.5710  16.6195  16.6970  16.7046  16.8443  16.9793
    17.0892  17.1453  17.2024  17.2817  17.3377  17.4514  17.6631  17.9072
    17.9602  18.0093

          k = 0.1667 0.4811 0.2061 ( 15510 PWs)   bands (ev):

   -70.7504 -70.7391 -70.7199 -70.7187 -70.6954 -70.6883 -70.6883 -70.6828
   -40.8610 -40.8553 -40.8389 -40.8329 -37.0661 -37.0407 -36.9603 -36.9379
   -36.8752 -36.8485 -36.8458 -36.8300 -36.8152 -36.8025 -36.7760 -36.7722
   -36.7515 -36.7500 -36.7092 -36.7055 -36.6857 -36.6732 -36.6678 -36.6602
   -36.6505 -36.6424 -36.6375 -36.6349 -17.1902 -17.1842 -17.1810 -17.1748
   -17.1271 -17.1104 -17.0511 -17.0332 -16.9890 -16.9790 -16.9748 -16.9670
    10.5372  11.1717  11.7733  12.1238  12.5418  12.6382  12.7824  12.8364
    13.1233  13.2360  13.4756  13.5237  13.8121  13.8469  13.8934  13.9216
    13.9693  14.0363  14.0563  14.1350  14.2227  14.2856  14.3427  14.3771
    14.4350  14.4896  14.5555  14.6093  14.7298  14.8480  14.9624  14.9979
    15.2152  15.3200  15.6307  15.6580  15.7194  15.8683  16.0186  16.0814
    16.1509  16.2406  16.5980  16.6471  16.6783  16.7523  16.8679  16.9856
    17.0646  17.1443  17.2464  17.2974  17.3350  17.4821  17.6795  17.8357
    17.9780  18.1332

          k = 0.1667 0.4811-0.3091 ( 15512 PWs)   bands (ev):

   -70.7453 -70.7453 -70.7196 -70.7196 -70.6883 -70.6883 -70.6883 -70.6883
   -40.8586 -40.8586 -40.8355 -40.8355 -37.0554 -37.0554 -36.9464 -36.9464
   -36.8568 -36.8568 -36.8402 -36.8402 -36.8172 -36.8172 -36.7748 -36.7748
   -36.7507 -36.7507 -36.7011 -36.7011 -36.6743 -36.6743 -36.6613 -36.6613
   -36.6540 -36.6540 -36.6371 -36.6371 -17.1857 -17.1857 -17.1786 -17.1786
   -17.1212 -17.1212 -17.0401 -17.0401 -16.9843 -16.9843 -16.9709 -16.9709
    10.8192  10.8192  11.9332  11.9332  12.5949  12.5949  12.8372  12.8372
    13.3007  13.3007  13.3757  13.3757  13.8431  13.8431  13.8865  13.8865
    14.0103  14.0103  14.0935  14.0935  14.2519  14.2519  14.3677  14.3677
    14.4336  14.4336  14.5719  14.5719  14.8052  14.8052  15.0328  15.0328
    15.4295  15.4295  15.5767  15.5767  15.6872  15.6872  16.0034  16.0034
    16.1771  16.1771  16.6335  16.6335  16.7161  16.7161  16.9265  16.9265
    17.1023  17.1023  17.2772  17.2772  17.4380  17.4380  17.7539  17.7539
    18.0076  18.0076

          k = 0.3333 0.5774 0.0000 ( 15498 PWs)   bands (ev):

   -70.7507 -70.7248 -70.7248 -70.7148 -70.7136 -70.6883 -70.6883 -70.6776
   -40.8548 -40.8548 -40.8394 -40.8394 -37.0396 -36.9956 -36.9654 -36.9654
   -36.9181 -36.8603 -36.8603 -36.7814 -36.7814 -36.7730 -36.7730 -36.7661
   -36.7574 -36.7574 -36.7524 -36.6908 -36.6908 -36.6870 -36.6731 -36.6731
   -36.6675 -36.6435 -36.6435 -36.6235 -17.1992 -17.1831 -17.1831 -17.1817
   -17.1018 -17.1018 -17.0569 -17.0569 -16.9821 -16.9821 -16.9745 -16.9588
    10.8923  11.6321  11.6321  12.3795  12.4162  12.6398  12.6398  12.7444
    12.7444  13.0913  13.7865  13.7865  13.8670  13.8670  13.9779  13.9779
    13.9784  13.9845  14.0232  14.0232  14.1125  14.2209  14.2664  14.2664
    14.5237  14.5237  14.5375  14.5871  14.5871  14.8917  14.8917  14.9523
    14.9843  15.0571  15.6666  15.7138  15.7138  15.7509  15.7509  16.0400
    16.5653  16.5653  16.5795  16.5795  16.7986  16.7986  16.9507  16.9507
    16.9749  17.1457  17.3199  17.3879  17.3879  17.4074  17.7757  17.7757
    17.8241  17.9718

          k = 0.3333 0.5774 0.1030 ( 15495 PWs)   bands (ev):

   -70.7495 -70.7248 -70.7248 -70.7237 -70.7047 -70.6883 -70.6883 -70.6788
   -40.8549 -40.8549 -40.8393 -40.8393 -37.0378 -37.0011 -36.9656 -36.9656
   -36.9089 -36.8573 -36.8573 -36.7924 -36.7877 -36.7877 -36.7794 -36.7794
   -36.7481 -36.7481 -36.7294 -36.6879 -36.6879 -36.6876 -36.6729 -36.6729
   -36.6659 -36.6461 -36.6461 -36.6267 -17.1981 -17.1829 -17.1819 -17.1819
   -17.1055 -17.1055 -17.0535 -17.0535 -16.9830 -16.9830 -16.9734 -16.9598
    10.9429  11.6730  11.6730  12.0043  12.5223  12.5223  12.7936  12.8142
    12.8142  13.1253  13.7518  13.7518  13.8454  13.9152  13.9152  13.9311
    13.9672  13.9672  14.0260  14.0260  14.1532  14.1971  14.2012  14.2012
    14.4720  14.4720  14.5723  14.7264  14.7264  14.8906  14.8975  14.8975
    15.0805  15.1405  15.6250  15.6250  15.6374  15.8363  15.8363  15.9806
    16.4042  16.4042  16.6409  16.6409  16.8063  16.8063  16.9655  16.9988
    16.9988  17.1746  17.2253  17.3778  17.3778  17.4169  17.7712  17.7712
    17.9663  17.9664

          k = 0.3333 0.5774 0.2061 ( 15513 PWs)   bands (ev):

   -70.7458 -70.7325 -70.7248 -70.7248 -70.6959 -70.6883 -70.6883 -70.6825
   -40.8549 -40.8549 -40.8392 -40.8392 -37.0324 -37.0125 -36.9660 -36.9660
   -36.8865 -36.8493 -36.8493 -36.8254 -36.8049 -36.8049 -36.7800 -36.7800
   -36.7394 -36.7394 -36.7076 -36.6897 -36.6810 -36.6810 -36.6710 -36.6710
   -36.6599 -36.6532 -36.6532 -36.6359 -17.1950 -17.1863 -17.1793 -17.1793
   -17.1123 -17.1123 -17.0475 -17.0475 -16.9849 -16.9849 -16.9704 -16.9625
    11.0915  11.6402  11.7784  11.7784  12.3436  12.3436  12.8728  12.8728
    13.1589  13.2229  13.6340  13.7188  13.7188  13.7819  13.9106  13.9106
    13.9438  13.9438  14.0846  14.0846  14.1549  14.1602  14.1645  14.1645
    14.4260  14.4260  14.6522  14.7575  14.7575  14.8201  15.0516  15.0516
    15.2290  15.3321  15.5051  15.5051  15.5587  15.8220  15.9167  15.9167
    16.2355  16.2355  16.6464  16.6464  16.8176  16.8176  16.9610  17.0787
    17.0787  17.0826  17.2560  17.3408  17.3408  17.4058  17.7811  17.7811
    17.9247  17.9247

          k = 0.3333 0.5774-0.3091 ( 15564 PWs)   bands (ev):

   -70.7400 -70.7400 -70.7248 -70.7248 -70.6883 -70.6883 -70.6883 -70.6883
   -40.8550 -40.8550 -40.8392 -40.8392 -37.0237 -37.0237 -36.9662 -36.9662
   -36.8575 -36.8575 -36.8431 -36.8431 -36.8146 -36.8146 -36.7801 -36.7801
   -36.7366 -36.7366 -36.6951 -36.6951 -36.6778 -36.6778 -36.6637 -36.6637
   -36.6629 -36.6629 -36.6487 -36.6487 -17.1907 -17.1907 -17.1780 -17.1780
   -17.1154 -17.1154 -17.0447 -17.0447 -16.9859 -16.9859 -16.9664 -16.9664
    11.3290  11.3290  11.8581  11.8581  12.2373  12.2373  12.8917  12.8917
    13.3467  13.3467  13.5666  13.5666  13.7056  13.7056  13.8892  13.8892
    13.9334  13.9334  14.1286  14.1286  14.1465  14.1465  14.1716  14.1716
    14.3985  14.3985  14.7356  14.7356  14.7398  14.7398  15.1955  15.1955
    15.3793  15.3793  15.4029  15.4029  15.6124  15.6124  15.9476  15.9476
    16.1678  16.1678  16.6443  16.6443  16.8223  16.8223  16.9941  16.9941
    17.1213  17.1213  17.3094  17.3094  17.3444  17.3444  17.7916  17.7916
    17.8971  17.8971

     the Fermi energy is    16.1744 ev

!    total energy              =   -3111.36279881 Ry
     estimated scf accuracy    <          6.2E-09 Ry
     smearing contrib. (-TS)   =       0.00008947 Ry
     internal energy E=F+TS    =   -3111.36288828 Ry

     The total energy is F=E-TS. E is the sum of the following terms:
     one-electron contribution =   -1208.41658203 Ry
     hartree contribution      =     698.33661261 Ry
     xc contribution           =    -349.42826759 Ry
     ewald contribution        =   -1642.60130587 Ry
     one-center paw contrib.   =    -609.25334540 Ry

     convergence has been achieved in  28 iterations

     negative rho (up, down):  4.194E-03 0.000E+00

     Forces acting on atoms (cartesian axes, Ry/au):

     atom    1 type  1   force =    -0.01342806    0.00775270    0.00000000
     atom    2 type  1   force =     0.01342806   -0.00775270    0.00000000
     atom    3 type  1   force =    -0.00000000    0.01550539    0.00000000
     atom    4 type  1   force =     0.01342806    0.00775270   -0.00000000
     atom    5 type  1   force =     0.00000000   -0.01550539   -0.00000000
     atom    6 type  1   force =    -0.01342806   -0.00775270    0.00000000
     atom    7 type  1   force =     0.00000000    0.00000000    0.00000000
     atom    8 type  1   force =     0.00000000   -0.00000000   -0.00000000
     atom    9 type  2   force =    -0.00000000   -0.00000000   -0.01081724
     atom   10 type  2   force =    -0.00000000   -0.00000000   -0.01081724
     atom   11 type  2   force =     0.00000000    0.00000000    0.01081724
     atom   12 type  2   force =    -0.00000000   -0.00000000    0.01081724

     Total force =     0.043710     Total SCF correction =     0.000126


     Computing stress (Cartesian axis) and pressure


     negative rho (up, down):  4.194E-03 0.000E+00
          total   stress  (Ry/bohr**3)                   (kbar)     P=     -155.62
  -0.00114434   0.00000000   0.00000000         -168.34        0.00        0.00
   0.00000000  -0.00114434   0.00000000            0.00     -168.34        0.00
   0.00000000   0.00000000  -0.00088500            0.00        0.00     -130.19


     Writing all to output data dir ./FeAl.save/ :
     XML data file, charge density, pseudopotentials, collected wavefunctions

     init_run     :      3.06s CPU      3.14s WALL (       1 calls)
     electrons    :    176.67s CPU    178.94s WALL (       1 calls)
     forces       :      0.92s CPU      0.92s WALL (       1 calls)
     stress       :      3.39s CPU      3.42s WALL (       1 calls)

     Called by init_run:
     wfcinit      :      2.43s CPU      2.48s WALL (       1 calls)
     potinit      :      0.18s CPU      0.19s WALL (       1 calls)
     hinit0       :      0.39s CPU      0.40s WALL (       1 calls)

     Called by electrons:
     c_bands      :    153.90s CPU    155.77s WALL (      28 calls)
     sum_band     :     16.87s CPU     17.15s WALL (      28 calls)
     v_of_rho     :      0.13s CPU      0.13s WALL (      29 calls)
     newd         :      0.83s CPU      0.84s WALL (      29 calls)
     PAW_pot      :      5.09s CPU      5.15s WALL (      29 calls)
     mix_rho      :      0.04s CPU      0.04s WALL (      28 calls)

     Called by c_bands:
     init_us_2    :      2.11s CPU      2.13s WALL (    1652 calls)
     cegterg      :    147.20s CPU    148.98s WALL (     784 calls)

     Called by *egterg:
     cdiaghg      :     34.04s CPU     34.26s WALL (    2802 calls)
     h_psi        :     67.83s CPU     69.05s WALL (    2830 calls)
     s_psi        :      8.81s CPU      8.88s WALL (    2830 calls)
     g_psi        :      0.41s CPU      0.41s WALL (    2018 calls)

     Called by h_psi:
     h_psi:calbec :     12.31s CPU     12.43s WALL (    2830 calls)
     vloc_psi     :     46.31s CPU     47.34s WALL (    2830 calls)
     add_vuspsi   :      8.57s CPU      8.65s WALL (    2830 calls)

     General routines
     calbec       :     19.75s CPU     19.93s WALL (    4090 calls)
     fft          :      0.42s CPU      0.43s WALL (     344 calls)
     ffts         :      0.01s CPU      0.01s WALL (      28 calls)
     fftw         :     49.90s CPU     51.00s WALL (  499422 calls)

     Parallel routines

     PWSCF        :    184.70s CPU    195.43s WALL


   This run was terminated on:  16:11:23  27Oct2025            

=------------------------------------------------------------------------------=
   JOB DONE.
=------------------------------------------------------------------------------=
Note: The following floating-point exceptions are signalling: IEEE_UNDERFLOW_FLAG IEEE_DENORMAL
Note: The following floating-point exceptions are signalling: IEEE_UNDERFLOW_FLAG IEEE_DENORMAL
Note: The following floating-point exceptions are signalling: IEEE_UNDERFLOW_FLAG IEEE_DENORMAL
Note: The following floating-point exceptions are signalling: IEEE_UNDERFLOW_FLAG IEEE_DENORMAL
Note: The following floating-point exceptions are signalling: IEEE_UNDERFLOW_FLAG IEEE_DENORMAL
Note: The following floating-point exceptions are signalling: IEEE_UNDERFLOW_FLAG IEEE_DENORMAL
Note: The following floating-point exceptions are signalling: IEEE_UNDERFLOW_FLAG IEEE_DENORMAL
Note: The following floating-point exceptions are signalling: IEEE_UNDERFLOW_FLAG IEEE_DENORMAL
Note: The following floating-point exceptions are signalling: IEEE_UNDERFLOW_FLAG IEEE_DENORMAL
Note: The following floating-point exceptions are signalling: IEEE_UNDERFLOW_FLAG IEEE_DENORMAL
Note: The following floating-point exceptions are signalling: IEEE_UNDERFLOW_FLAG IEEE_DENORMAL
Note: The following floating-point exceptions are signalling: IEEE_UNDERFLOW_FLAG IEEE_DENORMAL
Note: The following floating-point exceptions are signalling: IEEE_UNDERFLOW_FLAG IEEE_DENORMAL
Note: The following floating-point exceptions are signalling: IEEE_UNDERFLOW_FLAG IEEE_DENORMAL
Note: The following floating-point exceptions are signalling: IEEE_UNDERFLOW_FLAG IEEE_DENORMAL
Note: The following floating-point exceptions are signalling: IEEE_UNDERFLOW_FLAG IEEE_DENORMAL
