
     Program PWSCF v.7.4 starts on 28Oct2025 at 10:40:57 

     This program is part of the open-source Quantum ESPRESSO suite
     for quantum simulation of materials; please cite
         "P. Giannozzi et al., J. Phys.:Condens. Matter 21 395502 (2009);
         "P. Giannozzi et al., J. Phys.:Condens. Matter 29 465901 (2017);
         "P. Giannozzi et al., J. Chem. Phys. 152 154105 (2020);
          URL http://www.quantum-espresso.org", 
     in publications or presentations arising from this work. More details at
     http://www.quantum-espresso.org/quote

     Parallel version (MPI & OpenMP), running on      16 processor cores
     Number of MPI processes:                16
     Threads/MPI process:                     1

     MPI processes distributed on     1 nodes
     230585 MiB available memory on the printing compute node when the environment starts

     Reading input from TiFe_ecutwfc_convergence/TiFe2_ecut250.in

     Current dimensions of program PWSCF are:
     Max number of different atomic species (ntypx) = 10
     Max number of k-points (npk) =  40000
     Max angular momentum in pseudopotentials (lmaxx) =  4
     file Fe.pbe-spn-kjpaw_psl.0.2.1.UPF: wavefunction(s)  3D renormalized

     IMPORTANT: XC functional enforced from input :
     Exchange-correlation= PBE
                           (   1   4   3   4   0   0   0)
     Any further DFT definition will be discarded
     Please, verify this is what you really want

     Message from routine setup:
     using ibrav=0 with symmetry is DISCOURAGED, use correct ibrav instead

     R & G space division:  proc/nbgrp/npool/nimage =      16
     Subspace diagonalization in iterative solution of the eigenvalue problem:
     a serial algorithm will be used


     Parallelization info
     --------------------
     sticks:   dense  smooth     PW     G-vecs:    dense   smooth      PW
     Min         191     153     42                 7978     5725     836
     Max         193     154     43                 7981     5728     841
     Sum        3069    2449    673               127675    91623   13397

     Using Slab Decomposition



     bravais-lattice index     =            0
     lattice parameter (alat)  =       5.5533  a.u.
     unit-cell volume          =     171.2590 (a.u.)^3
     number of atoms/cell      =            2
     number of atomic types    =            2
     number of electrons       =        28.00
     number of Kohn-Sham states=           18
     kinetic-energy cutoff     =     250.0000  Ry
     charge density cutoff     =    1250.0000  Ry
     scf convergence threshold =      1.0E-08
     mixing beta               =       0.7000
     number of iterations used =            8  plain     mixing
     Exchange-correlation= PBE
                           (   1   4   3   4   0   0   0)

     celldm(1)=   5.553300  celldm(2)=   0.000000  celldm(3)=   0.000000
     celldm(4)=   0.000000  celldm(5)=   0.000000  celldm(6)=   0.000000

     crystal axes: (cart. coord. in units of alat)
               a(1) = (   1.000000   0.000000   0.000000 )  
               a(2) = (   0.000000   1.000000   0.000000 )  
               a(3) = (   0.000000   0.000000   1.000000 )  

     reciprocal axes: (cart. coord. in units 2 pi/alat)
               b(1) = (  1.000000  0.000000  0.000000 )  
               b(2) = (  0.000000  1.000000  0.000000 )  
               b(3) = (  0.000000  0.000000  1.000000 )  


     PseudoPot. # 1 for Fe read from file:
     ./Fe.pbe-spn-kjpaw_psl.0.2.1.UPF
     MD5 check sum: e86618425769142926afa95317d90200
     Pseudo is Projector augmented-wave + core cor, Zval = 16.0
     Generated using "atomic" code by A. Dal Corso  v.5.0.99 svn rev. 10869
     Shape of augmentation charge: PSQ
     Using radial grid of 1191 points,  6 beta functions with: 
                l(1) =   0
                l(2) =   0
                l(3) =   1
                l(4) =   1
                l(5) =   2
                l(6) =   2
     Q(r) pseudized with 0 coefficients 


     PseudoPot. # 2 for Ti read from file:
     ./Ti_pbe_v1.4.uspp.F.UPF
     MD5 check sum: 88a00a6731bd790ddea75d31a80cb452
     Pseudo is Ultrasoft + core correction, Zval = 12.0
     Generated by new atomic code, or converted to UPF format
     Using radial grid of  851 points,  6 beta functions with: 
                l(1) =   0
                l(2) =   0
                l(3) =   1
                l(4) =   1
                l(5) =   2
                l(6) =   2
     Q(r) pseudized with  6 coefficients,  rinner =    1.000   1.000   1.000
                                                       1.000   1.000

     atomic species   valence    mass     pseudopotential
     Fe               16.00    55.84500     Fe( 1.00)
     Ti               12.00    47.86700     Ti( 1.00)

     48 Sym. Ops., with inversion, found



   Cartesian axes

     site n.     atom                  positions (alat units)
         1        Fe     tau(   1) = (   0.5000000   0.5000000   0.5000000  )
         2        Ti     tau(   2) = (   0.0000000   0.0000000   0.0000000  )

     number of k points=    35  Marzari-Vanderbilt smearing, width (Ry)=  0.0050
                       cart. coord. in units 2pi/alat
        k(    1) = (   0.0000000   0.0000000   0.0000000), wk =   0.0027435
        k(    2) = (   0.0000000   0.0000000   0.1111111), wk =   0.0164609
        k(    3) = (   0.0000000   0.0000000   0.2222222), wk =   0.0164609
        k(    4) = (   0.0000000   0.0000000   0.3333333), wk =   0.0164609
        k(    5) = (   0.0000000   0.0000000   0.4444444), wk =   0.0164609
        k(    6) = (   0.0000000   0.1111111   0.1111111), wk =   0.0329218
        k(    7) = (   0.0000000   0.1111111   0.2222222), wk =   0.0658436
        k(    8) = (   0.0000000   0.1111111   0.3333333), wk =   0.0658436
        k(    9) = (   0.0000000   0.1111111   0.4444444), wk =   0.0658436
        k(   10) = (   0.0000000   0.2222222   0.2222222), wk =   0.0329218
        k(   11) = (   0.0000000   0.2222222   0.3333333), wk =   0.0658436
        k(   12) = (   0.0000000   0.2222222   0.4444444), wk =   0.0658436
        k(   13) = (   0.0000000   0.3333333   0.3333333), wk =   0.0329218
        k(   14) = (   0.0000000   0.3333333   0.4444444), wk =   0.0658436
        k(   15) = (   0.0000000   0.4444444   0.4444444), wk =   0.0329218
        k(   16) = (   0.1111111   0.1111111   0.1111111), wk =   0.0219479
        k(   17) = (   0.1111111   0.1111111   0.2222222), wk =   0.0658436
        k(   18) = (   0.1111111   0.1111111   0.3333333), wk =   0.0658436
        k(   19) = (   0.1111111   0.1111111   0.4444444), wk =   0.0658436
        k(   20) = (   0.1111111   0.2222222   0.2222222), wk =   0.0658436
        k(   21) = (   0.1111111   0.2222222   0.3333333), wk =   0.1316872
        k(   22) = (   0.1111111   0.2222222   0.4444444), wk =   0.1316872
        k(   23) = (   0.1111111   0.3333333   0.3333333), wk =   0.0658436
        k(   24) = (   0.1111111   0.3333333   0.4444444), wk =   0.1316872
        k(   25) = (   0.1111111   0.4444444   0.4444444), wk =   0.0658436
        k(   26) = (   0.2222222   0.2222222   0.2222222), wk =   0.0219479
        k(   27) = (   0.2222222   0.2222222   0.3333333), wk =   0.0658436
        k(   28) = (   0.2222222   0.2222222   0.4444444), wk =   0.0658436
        k(   29) = (   0.2222222   0.3333333   0.3333333), wk =   0.0658436
        k(   30) = (   0.2222222   0.3333333   0.4444444), wk =   0.1316872
        k(   31) = (   0.2222222   0.4444444   0.4444444), wk =   0.0658436
        k(   32) = (   0.3333333   0.3333333   0.3333333), wk =   0.0219479
        k(   33) = (   0.3333333   0.3333333   0.4444444), wk =   0.0658436
        k(   34) = (   0.3333333   0.4444444   0.4444444), wk =   0.0658436
        k(   35) = (   0.4444444   0.4444444   0.4444444), wk =   0.0219479

     Dense  grid:   127675 G-vectors     FFT dimensions: (  64,  64,  64)

     Smooth grid:    91623 G-vectors     FFT dimensions: (  60,  60,  60)

     Estimated max dynamical RAM per process >      42.26 MB

     Estimated total dynamical RAM >     676.21 MB

     Check: negative core charge=   -0.000002

     Initial potential from superposition of free atoms

     starting charge      26.9995, renormalised to      28.0000

     negative rho (up, down):  1.430E-03 0.000E+00
     Starting wfcs are   23 randomized atomic wfcs
     Checking if some PAW data can be deallocated... 

     total cpu time spent up to now is        1.4 secs

     per-process dynamical memory:   143.4 Mb

     Self-consistent Calculation

     iteration #  1     ecut=   250.00 Ry     beta= 0.70
     Davidson diagonalization with overlap
     ethr =  1.00E-02,  avg # of iterations =  2.1

     negative rho (up, down):  1.025E-04 0.000E+00

     total cpu time spent up to now is        2.2 secs

     WARNING: integrated charge=    28.00079006, expected=    28.00000000

     total energy              =    -434.85077549 Ry
     estimated scf accuracy    <      17.50546901 Ry

     iteration #  2     ecut=   250.00 Ry     beta= 0.70
     Davidson diagonalization with overlap
     ethr =  1.00E-02,  avg # of iterations =  6.1

     negative rho (up, down):  3.189E-05 0.000E+00

     total cpu time spent up to now is        3.4 secs

     WARNING: integrated charge=    28.00060274, expected=    28.00000000

     total energy              =    -448.50439469 Ry
     estimated scf accuracy    <      66.22868697 Ry

     iteration #  3     ecut=   250.00 Ry     beta= 0.70
     Davidson diagonalization with overlap
     ethr =  1.00E-02,  avg # of iterations =  3.2
     Minimization algorithm failed to find Fermi energy: reverting to bisection
     Possible cause: smearing is larger than the electronic band-gap.

     negative rho (up, down):  2.275E-04 0.000E+00

     total cpu time spent up to now is        4.4 secs

     WARNING: integrated charge=    28.00048058, expected=    28.00000000

     total energy              =    -448.59149287 Ry
     estimated scf accuracy    <      16.79086223 Ry

     iteration #  4     ecut=   250.00 Ry     beta= 0.70
     Davidson diagonalization with overlap
     ethr =  1.00E-02,  avg # of iterations =  2.1

     negative rho (up, down):  2.524E-04 0.000E+00

     total cpu time spent up to now is        5.1 secs

     WARNING: integrated charge=    28.00046644, expected=    28.00000000

     total energy              =    -449.11222574 Ry
     estimated scf accuracy    <       4.67761243 Ry

     iteration #  5     ecut=   250.00 Ry     beta= 0.70
     Davidson diagonalization with overlap
     ethr =  1.00E-02,  avg # of iterations =  1.0

     negative rho (up, down):  3.001E-04 0.000E+00

     total cpu time spent up to now is        5.8 secs

     WARNING: integrated charge=    28.00043066, expected=    28.00000000

     total energy              =    -449.08914846 Ry
     estimated scf accuracy    <       4.26690849 Ry

     iteration #  6     ecut=   250.00 Ry     beta= 0.70
     Davidson diagonalization with overlap
     ethr =  1.00E-02,  avg # of iterations =  1.0

     negative rho (up, down):  1.125E-03 0.000E+00

     total cpu time spent up to now is        6.4 secs

     WARNING: integrated charge=    28.00021839, expected=    28.00000000

     total energy              =    -447.95730633 Ry
     estimated scf accuracy    <       4.45553733 Ry

     iteration #  7     ecut=   250.00 Ry     beta= 0.70
     Davidson diagonalization with overlap
     ethr =  1.00E-02,  avg # of iterations =  3.2

     negative rho (up, down):  1.107E-03 0.000E+00

     total cpu time spent up to now is        7.2 secs

     WARNING: integrated charge=    28.00021516, expected=    28.00000000

     total energy              =    -448.68841963 Ry
     estimated scf accuracy    <       2.57540132 Ry

     iteration #  8     ecut=   250.00 Ry     beta= 0.70
     Davidson diagonalization with overlap
     ethr =  9.20E-03,  avg # of iterations =  1.0

     negative rho (up, down):  1.211E-03 0.000E+00

     total cpu time spent up to now is        7.8 secs

     WARNING: integrated charge=    28.00020328, expected=    28.00000000

     total energy              =    -448.75714020 Ry
     estimated scf accuracy    <       2.41563037 Ry

     iteration #  9     ecut=   250.00 Ry     beta= 0.70
     Davidson diagonalization with overlap
     ethr =  8.63E-03,  avg # of iterations =  1.1

     negative rho (up, down):  9.520E-04 0.000E+00

     total cpu time spent up to now is        8.5 secs

     WARNING: integrated charge=    28.00005921, expected=    28.00000000

     total energy              =    -448.20722677 Ry
     estimated scf accuracy    <       3.77056677 Ry

     iteration # 10     ecut=   250.00 Ry     beta= 0.70
     Davidson diagonalization with overlap
     ethr =  8.63E-03,  avg # of iterations =  1.8

     negative rho (up, down):  9.543E-04 0.000E+00

     total cpu time spent up to now is        9.2 secs

     WARNING: integrated charge=    28.00009144, expected=    28.00000000

     total energy              =    -448.58856157 Ry
     estimated scf accuracy    <       0.50935799 Ry

     iteration # 11     ecut=   250.00 Ry     beta= 0.70
     Davidson diagonalization with overlap
     ethr =  1.82E-03,  avg # of iterations =  1.4

     negative rho (up, down):  9.103E-04 0.000E+00

     total cpu time spent up to now is        9.8 secs

     WARNING: integrated charge=    28.00008307, expected=    28.00000000

     total energy              =    -448.63174003 Ry
     estimated scf accuracy    <       0.21231264 Ry

     iteration # 12     ecut=   250.00 Ry     beta= 0.70
     Davidson diagonalization with overlap
     ethr =  7.58E-04,  avg # of iterations =  2.1

     negative rho (up, down):  1.047E-03 0.000E+00

     total cpu time spent up to now is       10.5 secs

     WARNING: integrated charge=    28.00007836, expected=    28.00000000

     total energy              =    -448.57879873 Ry
     estimated scf accuracy    <       0.85250279 Ry

     iteration # 13     ecut=   250.00 Ry     beta= 0.70
     Davidson diagonalization with overlap
     ethr =  7.58E-04,  avg # of iterations =  1.4

     negative rho (up, down):  1.072E-03 0.000E+00

     total cpu time spent up to now is       11.2 secs

     WARNING: integrated charge=    27.99996812, expected=    28.00000000

     total energy              =    -448.55454784 Ry
     estimated scf accuracy    <       0.16988968 Ry

     iteration # 14     ecut=   250.00 Ry     beta= 0.70
     Davidson diagonalization with overlap
     ethr =  6.07E-04,  avg # of iterations =  3.3

     negative rho (up, down):  1.079E-03 0.000E+00

     total cpu time spent up to now is       11.9 secs

     WARNING: integrated charge=    27.99998293, expected=    28.00000000

     total energy              =    -448.58417927 Ry
     estimated scf accuracy    <       0.32825453 Ry

     iteration # 15     ecut=   250.00 Ry     beta= 0.70
     Davidson diagonalization with overlap
     ethr =  6.07E-04,  avg # of iterations =  1.0

     negative rho (up, down):  8.378E-04 0.000E+00

     total cpu time spent up to now is       12.6 secs

     WARNING: integrated charge=    28.00001555, expected=    28.00000000

     total energy              =    -448.58405401 Ry
     estimated scf accuracy    <       0.06663189 Ry

     iteration # 16     ecut=   250.00 Ry     beta= 0.70
     Davidson diagonalization with overlap
     ethr =  2.38E-04,  avg # of iterations =  3.2

     negative rho (up, down):  7.431E-04 0.000E+00

     total cpu time spent up to now is       13.3 secs

     WARNING: integrated charge=    28.00001786, expected=    28.00000000

     total energy              =    -448.61341946 Ry
     estimated scf accuracy    <       0.15878108 Ry

     iteration # 17     ecut=   250.00 Ry     beta= 0.70
     Davidson diagonalization with overlap
     ethr =  2.38E-04,  avg # of iterations =  1.0

     negative rho (up, down):  7.414E-04 0.000E+00

     total cpu time spent up to now is       14.0 secs

     WARNING: integrated charge=    28.00001872, expected=    28.00000000

     total energy              =    -448.61400315 Ry
     estimated scf accuracy    <       0.22798656 Ry

     iteration # 18     ecut=   250.00 Ry     beta= 0.70
     Davidson diagonalization with overlap
     ethr =  2.38E-04,  avg # of iterations =  1.0

     negative rho (up, down):  7.275E-04 0.000E+00

     total cpu time spent up to now is       14.6 secs

     WARNING: integrated charge=    27.99995717, expected=    28.00000000

     total energy              =    -448.60033674 Ry
     estimated scf accuracy    <       0.22873010 Ry

     iteration # 19     ecut=   250.00 Ry     beta= 0.70
     Davidson diagonalization with overlap
     ethr =  2.38E-04,  avg # of iterations =  1.0

     negative rho (up, down):  7.451E-04 0.000E+00

     total cpu time spent up to now is       15.3 secs

     WARNING: integrated charge=    27.99996809, expected=    28.00000000

     total energy              =    -448.60075664 Ry
     estimated scf accuracy    <       0.16854084 Ry

     iteration # 20     ecut=   250.00 Ry     beta= 0.70
     Davidson diagonalization with overlap
     ethr =  2.38E-04,  avg # of iterations =  1.0

     negative rho (up, down):  9.043E-04 0.000E+00

     total cpu time spent up to now is       15.9 secs

     WARNING: integrated charge=    27.99997982, expected=    28.00000000

     total energy              =    -448.58924681 Ry
     estimated scf accuracy    <       0.15778366 Ry

     iteration # 21     ecut=   250.00 Ry     beta= 0.70
     Davidson diagonalization with overlap
     ethr =  2.38E-04,  avg # of iterations =  1.0

     negative rho (up, down):  1.009E-03 0.000E+00

     total cpu time spent up to now is       16.6 secs

     WARNING: integrated charge=    27.99997219, expected=    28.00000000

     total energy              =    -448.57801843 Ry
     estimated scf accuracy    <       0.05517510 Ry

     iteration # 22     ecut=   250.00 Ry     beta= 0.70
     Davidson diagonalization with overlap
     ethr =  1.97E-04,  avg # of iterations =  3.0

     negative rho (up, down):  9.801E-04 0.000E+00

     total cpu time spent up to now is       17.3 secs

     total energy              =    -448.58528203 Ry
     estimated scf accuracy    <       0.01489845 Ry

     iteration # 23     ecut=   250.00 Ry     beta= 0.70
     Davidson diagonalization with overlap
     ethr =  5.32E-05,  avg # of iterations =  1.9

     negative rho (up, down):  9.800E-04 0.000E+00

     total cpu time spent up to now is       18.0 secs

     WARNING: integrated charge=    28.00000284, expected=    28.00000000

     total energy              =    -448.58671710 Ry
     estimated scf accuracy    <       0.00014179 Ry

     iteration # 24     ecut=   250.00 Ry     beta= 0.70
     Davidson diagonalization with overlap
     ethr =  5.06E-07,  avg # of iterations =  5.6

     negative rho (up, down):  9.889E-04 0.000E+00

     total cpu time spent up to now is       18.9 secs

     total energy              =    -448.58674483 Ry
     estimated scf accuracy    <       0.00048841 Ry

     iteration # 25     ecut=   250.00 Ry     beta= 0.70
     Davidson diagonalization with overlap
     ethr =  5.06E-07,  avg # of iterations =  2.8

     negative rho (up, down):  9.898E-04 0.000E+00

     total cpu time spent up to now is       19.7 secs

     total energy              =    -448.58677657 Ry
     estimated scf accuracy    <       0.00000028 Ry

     iteration # 26     ecut=   250.00 Ry     beta= 0.70
     Davidson diagonalization with overlap
     ethr =  9.83E-10,  avg # of iterations =  7.0

     negative rho (up, down):  9.896E-04 0.000E+00

     total cpu time spent up to now is       21.0 secs

     total energy              =    -448.58677825 Ry
     estimated scf accuracy    <       0.00002023 Ry

     iteration # 27     ecut=   250.00 Ry     beta= 0.70
     Davidson diagonalization with overlap
     ethr =  9.83E-10,  avg # of iterations =  4.8

     negative rho (up, down):  9.896E-04 0.000E+00

     total cpu time spent up to now is       21.9 secs

     total energy              =    -448.58677858 Ry
     estimated scf accuracy    <       0.00000282 Ry

     iteration # 28     ecut=   250.00 Ry     beta= 0.70
     Davidson diagonalization with overlap
     ethr =  9.83E-10,  avg # of iterations =  3.1

     negative rho (up, down):  9.894E-04 0.000E+00

     total cpu time spent up to now is       22.6 secs

     total energy              =    -448.58677858 Ry
     estimated scf accuracy    <       0.00000048 Ry

     iteration # 29     ecut=   250.00 Ry     beta= 0.70
     Davidson diagonalization with overlap
     ethr =  9.83E-10,  avg # of iterations =  2.1

     negative rho (up, down):  9.892E-04 0.000E+00

     total cpu time spent up to now is       23.3 secs

     End of self-consistent calculation

          k = 0.0000 0.0000 0.0000 ( 11459 PWs)   bands (ev):

   -69.2042 -39.1407 -35.2663 -35.2663 -35.2663 -15.2356 -15.2356 -15.2356
    10.1528  13.8668  13.8668  16.6614  16.6614  16.6614  19.0044  19.0044
    20.9449  20.9449

          k = 0.0000 0.0000 0.1111 ( 11404 PWs)   bands (ev):

   -69.2038 -39.1375 -35.2700 -35.2657 -35.2657 -15.2787 -15.2330 -15.2330
    10.4100  13.9907  13.9986  16.6428  16.6428  16.7175  18.8473  19.0620
    20.5823  20.5823

          k = 0.0000 0.0000 0.2222 ( 11396 PWs)   bands (ev):

   -69.2028 -39.1296 -35.2793 -35.2642 -35.2642 -15.3868 -15.2265 -15.2265
    11.1436  14.3127  14.3486  16.6063  16.6063  16.8688  18.4023  19.1657
    19.8172  19.8172

          k = 0.0000 0.0000 0.3333 ( 11416 PWs)   bands (ev):

   -69.2016 -39.1206 -35.2898 -35.2626 -35.2626 -15.5078 -15.2190 -15.2190
    12.2343  14.5611  14.8884  16.5884  16.5884  17.0613  17.7586  19.0699
    19.0898  19.0898

          k = 0.0000 0.0000 0.4444 ( 11432 PWs)   bands (ev):

   -69.2008 -39.1147 -35.2966 -35.2615 -35.2615 -15.5857 -15.2142 -15.2142
    13.4361  14.3572  15.4423  16.5969  16.5969  17.1341  17.2028  18.6543
    18.6543  18.6886

          k = 0.0000 0.1111 0.1111 ( 11397 PWs)   bands (ev):

   -69.2034 -39.1341 -35.2713 -35.2679 -35.2651 -15.2800 -15.2711 -15.2303
    10.6594  14.1026  14.1344  16.5211  16.6075  16.8504  18.8364  19.0204
    20.2145  20.2228

          k = 0.0000 0.1111 0.2222 ( 11427 PWs)   bands (ev):

   -69.2024 -39.1255 -35.2801 -35.2681 -35.2637 -15.3825 -15.2671 -15.2233
    11.3671  14.3907  14.4886  16.4126  16.5285  16.9759  18.5220  19.1065
    19.5188  19.6217

          k = 0.0000 0.1111 0.3333 ( 11430 PWs)   bands (ev):

   -69.2012 -39.1157 -35.2909 -35.2675 -35.2621 -15.5016 -15.2582 -15.2154
    12.4070  14.6301  14.9693  16.3812  16.4515  16.9782  18.0218  18.7288
    19.1995  19.2930

          k = 0.0000 0.1111 0.4444 ( 11417 PWs)   bands (ev):

   -69.2004 -39.1093 -35.2980 -35.2671 -35.2611 -15.5784 -15.2523 -15.2102
    13.5281  14.4158  15.4510  16.3727  16.4279  16.8598  17.6151  18.3321
    19.0622  19.1220

          k = 0.0000 0.2222 0.2222 ( 11422 PWs)   bands (ev):

   -69.2013 -39.1150 -35.2842 -35.2761 -35.2624 -15.3805 -15.3600 -15.2152
    11.9850  14.5177  14.9057  16.1678  16.3905  16.9252  18.6820  18.9277
    19.0774  19.4446

          k = 0.0000 0.2222 0.3333 ( 11406 PWs)   bands (ev):

   -69.2002 -39.1032 -35.2940 -35.2799 -35.2608 -15.4861 -15.3562 -15.2060
    12.8341  14.5594  15.4147  16.0314  16.3564  16.6320  18.4522  18.5679
    19.2724  19.5511

          k = 0.0000 0.2222 0.4444 ( 11428 PWs)   bands (ev):

   -69.1994 -39.0954 -35.3015 -35.2812 -35.2598 -15.5597 -15.3479 -15.2000
    13.6332  14.3471  15.7685  16.0518  16.3088  16.5252  18.1620  18.3865
    19.4417  19.7733

          k = 0.0000 0.3333 0.3333 ( 11430 PWs)   bands (ev):

   -69.1990 -39.0889 -35.2988 -35.2925 -35.2594 -15.4750 -15.4594 -15.1954
    13.2770  14.3423  15.7742  16.0816  16.1899  16.5973  18.4983  18.9570
    19.1302  20.0104

          k = 0.0000 0.3333 0.4444 ( 11436 PWs)   bands (ev):

   -69.1983 -39.0795 -35.3055 -35.2972 -35.2585 -15.5385 -15.4552 -15.1884
    13.5431  14.1319  15.7013  15.8510  16.5378  17.2525  18.2577  19.0235
    19.3896  20.4024

          k = 0.0000 0.4444 0.4444 ( 11460 PWs)   bands (ev):

   -69.1975 -39.0691 -35.3084 -35.3074 -35.2576 -15.5257 -15.5233 -15.1808
    13.4109  13.9878  15.5238  15.5745  17.4119  17.8948  18.6531  18.8987
    19.4000  20.7932

          k = 0.1111 0.1111 0.1111 ( 11386 PWs)   bands (ev):

   -69.2030 -39.1305 -35.2707 -35.2707 -35.2663 -15.2799 -15.2685 -15.2685
    10.9027  14.2397  14.2397  16.4824  16.4824  16.9327  18.9191  18.9191
    19.6871  20.5508

          k = 0.1111 0.1111 0.2222 ( 11416 PWs)   bands (ev):

   -69.2020 -39.1213 -35.2805 -35.2692 -35.2667 -15.3782 -15.2657 -15.2617
    11.5899  14.5390  14.5600  16.3344  16.3837  16.9339  18.6336  19.0553
    19.2932  19.7868

          k = 0.1111 0.1111 0.3333 ( 11432 PWs)   bands (ev):

   -69.2008 -39.1108 -35.2917 -35.2675 -35.2668 -15.4957 -15.2549 -15.2541
    12.5886  14.7776  14.9748  16.2510  16.3094  16.7822  18.2363  18.8266
    19.0882  19.4695

          k = 0.1111 0.1111 0.4444 ( 11422 PWs)   bands (ev):

   -69.2000 -39.1039 -35.2991 -35.2668 -35.2664 -15.5715 -15.2491 -15.2477
    13.6444  14.5216  15.4011  16.0882  16.4640  16.6556  17.9097  18.4425
    18.6925  19.7756

          k = 0.1111 0.2222 0.2222 ( 11435 PWs)   bands (ev):

   -69.2009 -39.1106 -35.2835 -35.2769 -35.2669 -15.3751 -15.3572 -15.2550
    12.2041  14.6852  14.9559  16.1096  16.2316  16.6655  18.7807  19.0553
    19.1788  19.5653

          k = 0.1111 0.2222 0.3333 ( 11448 PWs)   bands (ev):

   -69.1998 -39.0984 -35.2940 -35.2798 -35.2660 -15.4809 -15.3525 -15.2451
    13.0400  14.7475  15.3796  15.9599  16.1841  16.3782  18.6602  18.7090
    19.1637  19.8256

          k = 0.1111 0.2222 0.4444 ( 11428 PWs)   bands (ev):

   -69.1990 -39.0904 -35.3019 -35.2807 -35.2653 -15.5542 -15.3444 -15.2386
    13.8089  14.5240  15.5935  15.8927  16.2206  16.4966  18.2709  18.5492
    18.9337  20.4571

          k = 0.1111 0.3333 0.3333 ( 11438 PWs)   bands (ev):

   -69.1986 -39.0842 -35.2981 -35.2926 -35.2648 -15.4700 -15.4566 -15.2344
    13.4982  14.5252  15.7243  16.0000  16.0453  16.3673  18.5345  19.0226
    19.1244  20.3727

          k = 0.1111 0.3333 0.4444 ( 11432 PWs)   bands (ev):

   -69.1979 -39.0749 -35.3052 -35.2966 -35.2639 -15.5345 -15.4520 -15.2273
    13.7458  14.3193  15.6445  15.7439  16.4457  17.0246  18.2489  18.9230
    19.2083  20.7256

          k = 0.1111 0.4444 0.4444 ( 11431 PWs)   bands (ev):

   -69.1971 -39.0648 -35.3076 -35.3068 -35.2629 -15.5225 -15.5205 -15.2200
    13.6144  14.1771  15.4904  15.5314  17.3095  17.6411  18.3850  18.4774
    19.5189  20.9964

          k = 0.2222 0.2222 0.2222 ( 11428 PWs)   bands (ev):

   -69.1999 -39.0992 -35.2819 -35.2819 -35.2755 -15.3659 -15.3502 -15.3502
    12.8006  15.0890  15.0890  15.9656  15.9656  16.1366  18.9756  18.9756
    19.7331  19.8015

          k = 0.2222 0.2222 0.3333 ( 11431 PWs)   bands (ev):

   -69.1988 -39.0862 -35.2943 -35.2800 -35.2785 -15.4681 -15.3441 -15.3422
    13.5719  15.2104  15.2560  15.8006  15.8790  15.9762  18.8093  18.8382
    19.2743  20.2071

          k = 0.2222 0.2222 0.4444 ( 11435 PWs)   bands (ev):

   -69.1980 -39.0777 -35.3031 -35.2797 -35.2788 -15.5402 -15.3369 -15.3338
    14.1883  14.8271  15.3911  15.6743  16.0215  16.3834  18.3150  18.6273
    19.0634  20.5593

          k = 0.2222 0.3333 0.3333 ( 11431 PWs)   bands (ev):

   -69.1976 -39.0723 -35.2963 -35.2930 -35.2783 -15.4573 -15.4494 -15.3322
    14.1079  14.9632  15.6085  15.6568  15.8758  15.9299  18.5787  18.7296
    19.5872  20.3140

          k = 0.2222 0.3333 0.4444 ( 11444 PWs)   bands (ev):

   -69.1969 -39.0633 -35.3045 -35.2951 -35.2776 -15.5244 -15.4439 -15.3250
    14.2950  14.7585  15.5184  15.5650  16.1325  16.5572  18.2056  18.5102
    19.6337  20.6966

          k = 0.2222 0.4444 0.4444 ( 11438 PWs)   bands (ev):

   -69.1962 -39.0538 -35.3057 -35.3052 -35.2766 -15.5145 -15.5133 -15.3183
    14.1814  14.6482  15.4205  15.4501  16.8818  16.9023  18.0403  18.2419
    19.9144  21.0510

          k = 0.3333 0.3333 0.3333 ( 11449 PWs)   bands (ev):

   -69.1965 -39.0588 -35.2942 -35.2942 -35.2929 -15.4437 -15.4412 -15.4412
    14.8406  15.1324  15.5029  15.5029  15.7486  15.7486  18.4422  18.4422
    20.2353  20.2353

          k = 0.3333 0.3333 0.4444 ( 11461 PWs)   bands (ev):

   -69.1958 -39.0499 -35.3038 -35.2936 -35.2929 -15.5128 -15.4358 -15.4334
    14.8622  15.0702  15.4788  15.5725  15.7992  16.2219  18.0780  18.2966
    20.2287  20.7866

          k = 0.3333 0.4444 0.4444 ( 11449 PWs)   bands (ev):

   -69.1950 -39.0412 -35.3035 -35.3034 -35.2920 -15.5054 -15.5052 -15.4285
    14.9322  15.1370  15.3876  15.4788  16.1950  16.2706  17.9124  18.1056
    20.5427  21.0943

          k = 0.4444 0.4444 0.4444 ( 11452 PWs)   bands (ev):

   -69.1943 -39.0330 -35.3022 -35.3021 -35.3021 -15.4998 -15.4998 -15.4993
    15.2785  15.4656  15.4656  15.7968  15.7968  15.8047  17.8841  17.8841
    21.1206  21.1206

     the Fermi energy is    17.6490 ev

!    total energy              =    -448.58677860 Ry
     estimated scf accuracy    <          4.8E-09 Ry
     smearing contrib. (-TS)   =      -0.00008124 Ry
     internal energy E=F+TS    =    -448.58669737 Ry

     The total energy is F=E-TS. E is the sum of the following terms:
     one-electron contribution =    -151.35275965 Ry
     hartree contribution      =      91.62956458 Ry
     xc contribution           =     -52.88904200 Ry
     ewald contribution        =    -259.82070277 Ry
     one-center paw contrib.   =     -76.15375752 Ry

     convergence has been achieved in  29 iterations

     negative rho (up, down):  9.892E-04 0.000E+00

     Forces acting on atoms (cartesian axes, Ry/au):

     atom    1 type  1   force =     0.00000000    0.00000000    0.00000000
     atom    2 type  2   force =     0.00000000    0.00000000    0.00000000

     Total force =     0.000000     Total SCF correction =     0.000000


     Computing stress (Cartesian axis) and pressure


     negative rho (up, down):  9.892E-04 0.000E+00
          total   stress  (Ry/bohr**3)                   (kbar)     P=       32.04
   0.00021783   0.00000000   0.00000000           32.04        0.00        0.00
   0.00000000   0.00021783   0.00000000            0.00       32.04        0.00
   0.00000000   0.00000000   0.00021783            0.00        0.00       32.04


     Writing all to output data dir ./TiFe.save/ :
     XML data file, charge density, pseudopotentials, collected wavefunctions

     init_run     :      1.10s CPU      1.14s WALL (       1 calls)
     electrons    :     21.52s CPU     22.02s WALL (       1 calls)
     forces       :      0.11s CPU      0.11s WALL (       1 calls)
     stress       :      0.54s CPU      0.55s WALL (       1 calls)

     Called by init_run:
     wfcinit      :      0.27s CPU      0.29s WALL (       1 calls)
     potinit      :      0.43s CPU      0.44s WALL (       1 calls)
     hinit0       :      0.30s CPU      0.31s WALL (       1 calls)

     Called by electrons:
     c_bands      :     15.09s CPU     15.38s WALL (      29 calls)
     sum_band     :      4.03s CPU      4.11s WALL (      29 calls)
     v_of_rho     :      0.19s CPU      0.21s WALL (      30 calls)
     newd         :      1.16s CPU      1.18s WALL (      30 calls)
     PAW_pot      :      1.03s CPU      1.07s WALL (      30 calls)
     mix_rho      :      0.05s CPU      0.05s WALL (      29 calls)

     Called by c_bands:
     init_us_2    :      0.41s CPU      0.42s WALL (    2135 calls)
     cegterg      :     14.29s CPU     14.55s WALL (    1015 calls)

     Called by *egterg:
     cdiaghg      :      1.02s CPU      1.04s WALL (    3480 calls)
     h_psi        :     11.49s CPU     11.71s WALL (    3515 calls)
     s_psi        :      0.26s CPU      0.26s WALL (    3515 calls)
     g_psi        :      0.06s CPU      0.06s WALL (    2465 calls)

     Called by h_psi:
     h_psi:calbec :      0.55s CPU      0.56s WALL (    3515 calls)
     vloc_psi     :     10.63s CPU     10.84s WALL (    3515 calls)
     add_vuspsi   :      0.26s CPU      0.27s WALL (    3515 calls)

     General routines
     calbec       :      0.81s CPU      0.83s WALL (    5125 calls)
     fft          :      0.36s CPU      0.38s WALL (     413 calls)
     ffts         :      0.40s CPU      0.41s WALL (      59 calls)
     fftw         :     11.39s CPU     11.62s WALL (  107010 calls)
     interpolate  :      0.40s CPU      0.41s WALL (      30 calls)

     Parallel routines

     PWSCF        :     23.60s CPU     26.19s WALL


   This run was terminated on:  10:41:23  28Oct2025            

=------------------------------------------------------------------------------=
   JOB DONE.
=------------------------------------------------------------------------------=
Note: The following floating-point exceptions are signalling: IEEE_UNDERFLOW_FLAG IEEE_DENORMAL
Note: The following floating-point exceptions are signalling: IEEE_UNDERFLOW_FLAG IEEE_DENORMAL
Note: The following floating-point exceptions are signalling: IEEE_UNDERFLOW_FLAG IEEE_DENORMAL
Note: The following floating-point exceptions are signalling: IEEE_UNDERFLOW_FLAG IEEE_DENORMAL
Note: The following floating-point exceptions are signalling: IEEE_UNDERFLOW_FLAG IEEE_DENORMAL
Note: The following floating-point exceptions are signalling: IEEE_UNDERFLOW_FLAG IEEE_DENORMAL
Note: The following floating-point exceptions are signalling: IEEE_UNDERFLOW_FLAG IEEE_DENORMAL
Note: The following floating-point exceptions are signalling: IEEE_UNDERFLOW_FLAG IEEE_DENORMAL
Note: The following floating-point exceptions are signalling: IEEE_UNDERFLOW_FLAG IEEE_DENORMAL
Note: The following floating-point exceptions are signalling: IEEE_UNDERFLOW_FLAG IEEE_DENORMAL
Note: The following floating-point exceptions are signalling: IEEE_UNDERFLOW_FLAG IEEE_DENORMAL
Note: The following floating-point exceptions are signalling: IEEE_UNDERFLOW_FLAG IEEE_DENORMAL
Note: The following floating-point exceptions are signalling: IEEE_UNDERFLOW_FLAG IEEE_DENORMAL
Note: The following floating-point exceptions are signalling: IEEE_UNDERFLOW_FLAG IEEE_DENORMAL
Note: The following floating-point exceptions are signalling: IEEE_UNDERFLOW_FLAG IEEE_DENORMAL
Note: The following floating-point exceptions are signalling: IEEE_UNDERFLOW_FLAG IEEE_DENORMAL
