
     Program PWSCF v.7.4 starts on 28Oct2025 at 10:39:30 

     This program is part of the open-source Quantum ESPRESSO suite
     for quantum simulation of materials; please cite
         "P. Giannozzi et al., J. Phys.:Condens. Matter 21 395502 (2009);
         "P. Giannozzi et al., J. Phys.:Condens. Matter 29 465901 (2017);
         "P. Giannozzi et al., J. Chem. Phys. 152 154105 (2020);
          URL http://www.quantum-espresso.org", 
     in publications or presentations arising from this work. More details at
     http://www.quantum-espresso.org/quote

     Parallel version (MPI & OpenMP), running on      16 processor cores
     Number of MPI processes:                16
     Threads/MPI process:                     1

     MPI processes distributed on     1 nodes
     230633 MiB available memory on the printing compute node when the environment starts

     Reading input from TiFe_ecutwfc_convergence/TiFe2_ecut100.in

     Current dimensions of program PWSCF are:
     Max number of different atomic species (ntypx) = 10
     Max number of k-points (npk) =  40000
     Max angular momentum in pseudopotentials (lmaxx) =  4
     file Fe.pbe-spn-kjpaw_psl.0.2.1.UPF: wavefunction(s)  3D renormalized

     IMPORTANT: XC functional enforced from input :
     Exchange-correlation= PBE
                           (   1   4   3   4   0   0   0)
     Any further DFT definition will be discarded
     Please, verify this is what you really want

     Message from routine setup:
     using ibrav=0 with symmetry is DISCOURAGED, use correct ibrav instead

     R & G space division:  proc/nbgrp/npool/nimage =      16
     Subspace diagonalization in iterative solution of the eigenvalue problem:
     a serial algorithm will be used


     Parallelization info
     --------------------
     sticks:   dense  smooth     PW     G-vecs:    dense   smooth      PW
     Min          76      60     18                 2025     1436     232
     Max          77      61     19                 2027     1441     235
     Sum        1225     973    293                32423    23031    3743

     Using Slab Decomposition



     bravais-lattice index     =            0
     lattice parameter (alat)  =       5.5533  a.u.
     unit-cell volume          =     171.2590 (a.u.)^3
     number of atoms/cell      =            2
     number of atomic types    =            2
     number of electrons       =        28.00
     number of Kohn-Sham states=           18
     kinetic-energy cutoff     =     100.0000  Ry
     charge density cutoff     =     500.0000  Ry
     scf convergence threshold =      1.0E-08
     mixing beta               =       0.7000
     number of iterations used =            8  plain     mixing
     Exchange-correlation= PBE
                           (   1   4   3   4   0   0   0)

     celldm(1)=   5.553300  celldm(2)=   0.000000  celldm(3)=   0.000000
     celldm(4)=   0.000000  celldm(5)=   0.000000  celldm(6)=   0.000000

     crystal axes: (cart. coord. in units of alat)
               a(1) = (   1.000000   0.000000   0.000000 )  
               a(2) = (   0.000000   1.000000   0.000000 )  
               a(3) = (   0.000000   0.000000   1.000000 )  

     reciprocal axes: (cart. coord. in units 2 pi/alat)
               b(1) = (  1.000000  0.000000  0.000000 )  
               b(2) = (  0.000000  1.000000  0.000000 )  
               b(3) = (  0.000000  0.000000  1.000000 )  


     PseudoPot. # 1 for Fe read from file:
     ./Fe.pbe-spn-kjpaw_psl.0.2.1.UPF
     MD5 check sum: e86618425769142926afa95317d90200
     Pseudo is Projector augmented-wave + core cor, Zval = 16.0
     Generated using "atomic" code by A. Dal Corso  v.5.0.99 svn rev. 10869
     Shape of augmentation charge: PSQ
     Using radial grid of 1191 points,  6 beta functions with: 
                l(1) =   0
                l(2) =   0
                l(3) =   1
                l(4) =   1
                l(5) =   2
                l(6) =   2
     Q(r) pseudized with 0 coefficients 


     PseudoPot. # 2 for Ti read from file:
     ./Ti_pbe_v1.4.uspp.F.UPF
     MD5 check sum: 88a00a6731bd790ddea75d31a80cb452
     Pseudo is Ultrasoft + core correction, Zval = 12.0
     Generated by new atomic code, or converted to UPF format
     Using radial grid of  851 points,  6 beta functions with: 
                l(1) =   0
                l(2) =   0
                l(3) =   1
                l(4) =   1
                l(5) =   2
                l(6) =   2
     Q(r) pseudized with  6 coefficients,  rinner =    1.000   1.000   1.000
                                                       1.000   1.000

     atomic species   valence    mass     pseudopotential
     Fe               16.00    55.84500     Fe( 1.00)
     Ti               12.00    47.86700     Ti( 1.00)

     48 Sym. Ops., with inversion, found



   Cartesian axes

     site n.     atom                  positions (alat units)
         1        Fe     tau(   1) = (   0.5000000   0.5000000   0.5000000  )
         2        Ti     tau(   2) = (   0.0000000   0.0000000   0.0000000  )

     number of k points=    35  Marzari-Vanderbilt smearing, width (Ry)=  0.0050
                       cart. coord. in units 2pi/alat
        k(    1) = (   0.0000000   0.0000000   0.0000000), wk =   0.0027435
        k(    2) = (   0.0000000   0.0000000   0.1111111), wk =   0.0164609
        k(    3) = (   0.0000000   0.0000000   0.2222222), wk =   0.0164609
        k(    4) = (   0.0000000   0.0000000   0.3333333), wk =   0.0164609
        k(    5) = (   0.0000000   0.0000000   0.4444444), wk =   0.0164609
        k(    6) = (   0.0000000   0.1111111   0.1111111), wk =   0.0329218
        k(    7) = (   0.0000000   0.1111111   0.2222222), wk =   0.0658436
        k(    8) = (   0.0000000   0.1111111   0.3333333), wk =   0.0658436
        k(    9) = (   0.0000000   0.1111111   0.4444444), wk =   0.0658436
        k(   10) = (   0.0000000   0.2222222   0.2222222), wk =   0.0329218
        k(   11) = (   0.0000000   0.2222222   0.3333333), wk =   0.0658436
        k(   12) = (   0.0000000   0.2222222   0.4444444), wk =   0.0658436
        k(   13) = (   0.0000000   0.3333333   0.3333333), wk =   0.0329218
        k(   14) = (   0.0000000   0.3333333   0.4444444), wk =   0.0658436
        k(   15) = (   0.0000000   0.4444444   0.4444444), wk =   0.0329218
        k(   16) = (   0.1111111   0.1111111   0.1111111), wk =   0.0219479
        k(   17) = (   0.1111111   0.1111111   0.2222222), wk =   0.0658436
        k(   18) = (   0.1111111   0.1111111   0.3333333), wk =   0.0658436
        k(   19) = (   0.1111111   0.1111111   0.4444444), wk =   0.0658436
        k(   20) = (   0.1111111   0.2222222   0.2222222), wk =   0.0658436
        k(   21) = (   0.1111111   0.2222222   0.3333333), wk =   0.1316872
        k(   22) = (   0.1111111   0.2222222   0.4444444), wk =   0.1316872
        k(   23) = (   0.1111111   0.3333333   0.3333333), wk =   0.0658436
        k(   24) = (   0.1111111   0.3333333   0.4444444), wk =   0.1316872
        k(   25) = (   0.1111111   0.4444444   0.4444444), wk =   0.0658436
        k(   26) = (   0.2222222   0.2222222   0.2222222), wk =   0.0219479
        k(   27) = (   0.2222222   0.2222222   0.3333333), wk =   0.0658436
        k(   28) = (   0.2222222   0.2222222   0.4444444), wk =   0.0658436
        k(   29) = (   0.2222222   0.3333333   0.3333333), wk =   0.0658436
        k(   30) = (   0.2222222   0.3333333   0.4444444), wk =   0.1316872
        k(   31) = (   0.2222222   0.4444444   0.4444444), wk =   0.0658436
        k(   32) = (   0.3333333   0.3333333   0.3333333), wk =   0.0219479
        k(   33) = (   0.3333333   0.3333333   0.4444444), wk =   0.0658436
        k(   34) = (   0.3333333   0.4444444   0.4444444), wk =   0.0658436
        k(   35) = (   0.4444444   0.4444444   0.4444444), wk =   0.0219479

     Dense  grid:    32423 G-vectors     FFT dimensions: (  40,  40,  40)

     Smooth grid:    23031 G-vectors     FFT dimensions: (  36,  36,  36)

     Estimated max dynamical RAM per process >      12.91 MB

     Estimated total dynamical RAM >     206.57 MB

     Check: negative core charge=   -0.000055

     Initial potential from superposition of free atoms

     starting charge      26.9995, renormalised to      28.0000

     negative rho (up, down):  1.265E-03 0.000E+00
     Starting wfcs are   23 randomized atomic wfcs
     Checking if some PAW data can be deallocated... 

     total cpu time spent up to now is        1.0 secs

     per-process dynamical memory:   120.5 Mb

     Self-consistent Calculation

     iteration #  1     ecut=   100.00 Ry     beta= 0.70
     Davidson diagonalization with overlap
     ethr =  1.00E-02,  avg # of iterations =  2.1
     Minimization algorithm failed to find Fermi energy: reverting to bisection
     Possible cause: smearing is larger than the electronic band-gap.

     negative rho (up, down):  4.142E-04 0.000E+00

     total cpu time spent up to now is        1.3 secs

     total energy              =    -434.89025058 Ry
     estimated scf accuracy    <      17.46669955 Ry

     iteration #  2     ecut=   100.00 Ry     beta= 0.70
     Davidson diagonalization with overlap
     ethr =  1.00E-02,  avg # of iterations =  6.0

     negative rho (up, down):  1.361E-04 0.000E+00

     total cpu time spent up to now is        1.8 secs

     total energy              =    -448.54152837 Ry
     estimated scf accuracy    <      65.98869086 Ry

     iteration #  3     ecut=   100.00 Ry     beta= 0.70
     Davidson diagonalization with overlap
     ethr =  1.00E-02,  avg # of iterations =  3.2
     Minimization algorithm failed to find Fermi energy: reverting to bisection
     Possible cause: smearing is larger than the electronic band-gap.

     negative rho (up, down):  2.956E-04 0.000E+00

     total cpu time spent up to now is        2.1 secs

     total energy              =    -448.58687818 Ry
     estimated scf accuracy    <      16.78339529 Ry

     iteration #  4     ecut=   100.00 Ry     beta= 0.70
     Davidson diagonalization with overlap
     ethr =  1.00E-02,  avg # of iterations =  2.1

     negative rho (up, down):  3.094E-04 0.000E+00

     total cpu time spent up to now is        2.4 secs

     total energy              =    -449.11229585 Ry
     estimated scf accuracy    <       4.67758867 Ry

     iteration #  5     ecut=   100.00 Ry     beta= 0.70
     Davidson diagonalization with overlap
     ethr =  1.00E-02,  avg # of iterations =  1.0

     negative rho (up, down):  3.263E-04 0.000E+00

     total cpu time spent up to now is        2.7 secs

     total energy              =    -449.11805109 Ry
     estimated scf accuracy    <       4.28811458 Ry

     iteration #  6     ecut=   100.00 Ry     beta= 0.70
     Davidson diagonalization with overlap
     ethr =  1.00E-02,  avg # of iterations =  1.0

     negative rho (up, down):  9.845E-04 0.000E+00

     total cpu time spent up to now is        2.9 secs

     total energy              =    -447.88285679 Ry
     estimated scf accuracy    <       4.49469745 Ry

     iteration #  7     ecut=   100.00 Ry     beta= 0.70
     Davidson diagonalization with overlap
     ethr =  1.00E-02,  avg # of iterations =  3.5

     negative rho (up, down):  7.728E-04 0.000E+00

     total cpu time spent up to now is        3.2 secs

     total energy              =    -448.52716873 Ry
     estimated scf accuracy    <       4.26532925 Ry

     iteration #  8     ecut=   100.00 Ry     beta= 0.70
     Davidson diagonalization with overlap
     ethr =  1.00E-02,  avg # of iterations =  1.0

     negative rho (up, down):  4.688E-04 0.000E+00

     total cpu time spent up to now is        3.5 secs

     total energy              =    -448.49168008 Ry
     estimated scf accuracy    <       0.82065768 Ry

     iteration #  9     ecut=   100.00 Ry     beta= 0.70
     Davidson diagonalization with overlap
     ethr =  2.93E-03,  avg # of iterations =  2.0

     negative rho (up, down):  4.694E-04 0.000E+00

     total cpu time spent up to now is        3.8 secs

     total energy              =    -448.59882435 Ry
     estimated scf accuracy    <       0.16724698 Ry

     iteration # 10     ecut=   100.00 Ry     beta= 0.70
     Davidson diagonalization with overlap
     ethr =  5.97E-04,  avg # of iterations =  1.6

     negative rho (up, down):  6.513E-04 0.000E+00

     total cpu time spent up to now is        4.0 secs

     total energy              =    -448.58488987 Ry
     estimated scf accuracy    <       0.18265320 Ry

     iteration # 11     ecut=   100.00 Ry     beta= 0.70
     Davidson diagonalization with overlap
     ethr =  5.97E-04,  avg # of iterations =  1.1

     negative rho (up, down):  6.028E-04 0.000E+00

     total cpu time spent up to now is        4.3 secs

     total energy              =    -448.58737604 Ry
     estimated scf accuracy    <       0.06037989 Ry

     iteration # 12     ecut=   100.00 Ry     beta= 0.70
     Davidson diagonalization with overlap
     ethr =  2.16E-04,  avg # of iterations =  1.6

     negative rho (up, down):  2.892E-04 0.000E+00

     total cpu time spent up to now is        4.5 secs

     total energy              =    -448.74515983 Ry
     estimated scf accuracy    <       0.02730864 Ry

     iteration # 13     ecut=   100.00 Ry     beta= 0.70
     Davidson diagonalization with overlap
     ethr =  9.75E-05,  avg # of iterations =  6.9

     negative rho (up, down):  5.972E-05 0.000E+00

     total cpu time spent up to now is        5.1 secs

     total energy              =    -449.61321871 Ry
     estimated scf accuracy    <       1.67304838 Ry

     iteration # 14     ecut=   100.00 Ry     beta= 0.70
     Davidson diagonalization with overlap
     ethr =  9.75E-05,  avg # of iterations =  7.3

     negative rho (up, down):  1.066E-04 0.000E+00

     total cpu time spent up to now is        5.6 secs

     WARNING: integrated charge=    28.00001590, expected=    28.00000000

     total energy              =    -449.42598549 Ry
     estimated scf accuracy    <       3.99986497 Ry

     iteration # 15     ecut=   100.00 Ry     beta= 0.70
     Davidson diagonalization with overlap
     ethr =  9.75E-05,  avg # of iterations =  2.9

     negative rho (up, down):  7.518E-04 0.000E+00

     total cpu time spent up to now is        5.9 secs

     WARNING: integrated charge=    28.00024188, expected=    28.00000000

     total energy              =    -448.16648161 Ry
     estimated scf accuracy    <       3.16765321 Ry

     iteration # 16     ecut=   100.00 Ry     beta= 0.70
     Davidson diagonalization with overlap
     ethr =  9.75E-05,  avg # of iterations =  8.3

     negative rho (up, down):  1.234E-03 0.000E+00

     total cpu time spent up to now is        6.6 secs

     WARNING: integrated charge=    27.99985755, expected=    28.00000000

     total energy              =    -448.61878543 Ry
     estimated scf accuracy    <       0.18678061 Ry

     iteration # 17     ecut=   100.00 Ry     beta= 0.70
     Davidson diagonalization with overlap
     ethr =  9.75E-05,  avg # of iterations =  4.2

     negative rho (up, down):  7.917E-04 0.000E+00

     total cpu time spent up to now is        6.9 secs

     WARNING: integrated charge=    28.00014250, expected=    28.00000000

     total energy              =    -448.56335311 Ry
     estimated scf accuracy    <       0.86877040 Ry

     iteration # 18     ecut=   100.00 Ry     beta= 0.70
     Davidson diagonalization with overlap
     ethr =  9.75E-05,  avg # of iterations =  4.4

     negative rho (up, down):  7.526E-04 0.000E+00

     total cpu time spent up to now is        7.3 secs

     WARNING: integrated charge=    28.00018833, expected=    28.00000000

     total energy              =    -448.58711224 Ry
     estimated scf accuracy    <       0.04824231 Ry

     iteration # 19     ecut=   100.00 Ry     beta= 0.70
     Davidson diagonalization with overlap
     ethr =  9.75E-05,  avg # of iterations =  1.0

     negative rho (up, down):  7.785E-04 0.000E+00

     total cpu time spent up to now is        7.5 secs

     WARNING: integrated charge=    28.00004632, expected=    28.00000000

     total energy              =    -448.58585650 Ry
     estimated scf accuracy    <       0.02188859 Ry

     iteration # 20     ecut=   100.00 Ry     beta= 0.70
     Davidson diagonalization with overlap
     ethr =  7.82E-05,  avg # of iterations =  1.1

     negative rho (up, down):  8.002E-04 0.000E+00

     total cpu time spent up to now is        7.8 secs

     WARNING: integrated charge=    28.00002426, expected=    28.00000000

     total energy              =    -448.58667554 Ry
     estimated scf accuracy    <       0.00804634 Ry

     iteration # 21     ecut=   100.00 Ry     beta= 0.70
     Davidson diagonalization with overlap
     ethr =  2.87E-05,  avg # of iterations =  1.1

     negative rho (up, down):  8.352E-04 0.000E+00

     total cpu time spent up to now is        8.0 secs

     WARNING: integrated charge=    27.99997090, expected=    28.00000000

     total energy              =    -448.58733182 Ry
     estimated scf accuracy    <       0.01221082 Ry

     iteration # 22     ecut=   100.00 Ry     beta= 0.70
     Davidson diagonalization with overlap
     ethr =  2.87E-05,  avg # of iterations =  1.0

     negative rho (up, down):  8.512E-04 0.000E+00

     total cpu time spent up to now is        8.3 secs

     WARNING: integrated charge=    27.99995282, expected=    28.00000000

     total energy              =    -448.58778781 Ry
     estimated scf accuracy    <       0.01983023 Ry

     iteration # 23     ecut=   100.00 Ry     beta= 0.70
     Davidson diagonalization with overlap
     ethr =  2.87E-05,  avg # of iterations =  1.0

     negative rho (up, down):  8.274E-04 0.000E+00

     total cpu time spent up to now is        8.5 secs

     WARNING: integrated charge=    27.99997776, expected=    28.00000000

     total energy              =    -448.58728774 Ry
     estimated scf accuracy    <       0.02540560 Ry

     iteration # 24     ecut=   100.00 Ry     beta= 0.70
     Davidson diagonalization with overlap
     ethr =  2.87E-05,  avg # of iterations =  1.0

     negative rho (up, down):  7.052E-04 0.000E+00

     total cpu time spent up to now is        8.8 secs

     WARNING: integrated charge=    28.00002166, expected=    28.00000000

     total energy              =    -448.58422096 Ry
     estimated scf accuracy    <       0.01898157 Ry

     iteration # 25     ecut=   100.00 Ry     beta= 0.70
     Davidson diagonalization with overlap
     ethr =  2.87E-05,  avg # of iterations =  3.1

     negative rho (up, down):  7.239E-04 0.000E+00

     total cpu time spent up to now is        9.1 secs

     total energy              =    -448.58594532 Ry
     estimated scf accuracy    <       0.00113995 Ry

     iteration # 26     ecut=   100.00 Ry     beta= 0.70
     Davidson diagonalization with overlap
     ethr =  4.07E-06,  avg # of iterations =  1.5

     negative rho (up, down):  7.242E-04 0.000E+00

     total cpu time spent up to now is        9.3 secs

     total energy              =    -448.58603119 Ry
     estimated scf accuracy    <       0.00000726 Ry

     iteration # 27     ecut=   100.00 Ry     beta= 0.70
     Davidson diagonalization with overlap
     ethr =  2.59E-08,  avg # of iterations =  5.4

     negative rho (up, down):  7.246E-04 0.000E+00

     total cpu time spent up to now is        9.7 secs

     total energy              =    -448.58604352 Ry
     estimated scf accuracy    <       0.00001273 Ry

     iteration # 28     ecut=   100.00 Ry     beta= 0.70
     Davidson diagonalization with overlap
     ethr =  2.59E-08,  avg # of iterations =  1.7

     negative rho (up, down):  7.257E-04 0.000E+00

     total cpu time spent up to now is       10.0 secs

     total energy              =    -448.58604289 Ry
     estimated scf accuracy    <       0.00000950 Ry

     iteration # 29     ecut=   100.00 Ry     beta= 0.70
     Davidson diagonalization with overlap
     ethr =  2.59E-08,  avg # of iterations =  1.7

     negative rho (up, down):  7.254E-04 0.000E+00

     total cpu time spent up to now is       10.2 secs

     total energy              =    -448.58604336 Ry
     estimated scf accuracy    <       0.00000031 Ry

     iteration # 30     ecut=   100.00 Ry     beta= 0.70
     Davidson diagonalization with overlap
     ethr =  1.09E-09,  avg # of iterations =  3.4

     negative rho (up, down):  7.255E-04 0.000E+00

     total cpu time spent up to now is       10.5 secs

     total energy              =    -448.58604337 Ry
     estimated scf accuracy    <       0.00000018 Ry

     iteration # 31     ecut=   100.00 Ry     beta= 0.70
     Davidson diagonalization with overlap
     ethr =  6.51E-10,  avg # of iterations =  2.2

     negative rho (up, down):  7.257E-04 0.000E+00

     total cpu time spent up to now is       10.8 secs

     End of self-consistent calculation

          k = 0.0000 0.0000 0.0000 (  2945 PWs)   bands (ev):

   -69.2031 -39.1402 -35.2641 -35.2641 -35.2641 -15.2350 -15.2350 -15.2350
    10.1539  13.8674  13.8674  16.6621  16.6621  16.6621  19.0051  19.0051
    20.9457  20.9457

          k = 0.0000 0.0000 0.1111 (  2897 PWs)   bands (ev):

   -69.2026 -39.1370 -35.2678 -35.2635 -35.2635 -15.2781 -15.2324 -15.2324
    10.4111  13.9914  13.9993  16.6435  16.6435  16.7182  18.8480  19.0628
    20.5832  20.5832

          k = 0.0000 0.0000 0.2222 (  2886 PWs)   bands (ev):

   -69.2016 -39.1291 -35.2771 -35.2621 -35.2621 -15.3862 -15.2259 -15.2259
    11.1447  14.3136  14.3493  16.6070  16.6070  16.8696  18.4030  19.1664
    19.8182  19.8182

          k = 0.0000 0.0000 0.3333 (  2862 PWs)   bands (ev):

   -69.2004 -39.1201 -35.2877 -35.2604 -35.2604 -15.5072 -15.2184 -15.2184
    12.2356  14.5622  14.8891  16.5891  16.5891  17.0621  17.7593  19.0707
    19.0909  19.0909

          k = 0.0000 0.0000 0.4444 (  2882 PWs)   bands (ev):

   -69.1996 -39.1142 -35.2945 -35.2594 -35.2594 -15.5851 -15.2136 -15.2136
    13.4375  14.3587  15.4429  16.5977  16.5977  17.1348  17.2035  18.6553
    18.6553  18.6894

          k = 0.0000 0.1111 0.1111 (  2889 PWs)   bands (ev):

   -69.2022 -39.1336 -35.2692 -35.2657 -35.2630 -15.2794 -15.2705 -15.2297
    10.6605  14.1033  14.1352  16.5218  16.6082  16.8511  18.8371  19.0211
    20.2154  20.2237

          k = 0.0000 0.1111 0.2222 (  2895 PWs)   bands (ev):

   -69.2012 -39.1250 -35.2780 -35.2660 -35.2615 -15.3819 -15.2665 -15.2227
    11.3683  14.3915  14.4894  16.4133  16.5292  16.9767  18.5228  19.1073
    19.5198  19.6227

          k = 0.0000 0.1111 0.3333 (  2880 PWs)   bands (ev):

   -69.2000 -39.1152 -35.2888 -35.2654 -35.2599 -15.5010 -15.2576 -15.2148
    12.4083  14.6312  14.9701  16.3819  16.4523  16.9790  18.0225  18.7298
    19.2005  19.2939

          k = 0.0000 0.1111 0.4444 (  2886 PWs)   bands (ev):

   -69.1992 -39.1088 -35.2958 -35.2649 -35.2589 -15.5778 -15.2517 -15.2096
    13.5294  14.4172  15.4517  16.3736  16.4286  16.8606  17.6158  18.3329
    19.0632  19.1231

          k = 0.0000 0.2222 0.2222 (  2903 PWs)   bands (ev):

   -69.2002 -39.1146 -35.2820 -35.2739 -35.2602 -15.3799 -15.3594 -15.2146
    11.9863  14.5185  14.9066  16.1685  16.3913  16.9259  18.6827  18.9287
    19.0782  19.4455

          k = 0.0000 0.2222 0.3333 (  2890 PWs)   bands (ev):

   -69.1990 -39.1027 -35.2918 -35.2777 -35.2587 -15.4855 -15.3556 -15.2054
    12.8354  14.5603  15.4157  16.0321  16.3574  16.6328  18.4531  18.5686
    19.2733  19.5520

          k = 0.0000 0.2222 0.4444 (  2881 PWs)   bands (ev):

   -69.1982 -39.0949 -35.2993 -35.2790 -35.2577 -15.5591 -15.3473 -15.1994
    13.6343  14.3483  15.7694  16.0526  16.3096  16.5265  18.1627  18.3872
    19.4430  19.7742

          k = 0.0000 0.3333 0.3333 (  2904 PWs)   bands (ev):

   -69.1979 -39.0884 -35.2967 -35.2903 -35.2572 -15.4744 -15.4588 -15.1948
    13.2780  14.3432  15.7749  16.0828  16.1906  16.5984  18.4993  18.9577
    19.1313  20.0113

          k = 0.0000 0.3333 0.4444 (  2896 PWs)   bands (ev):

   -69.1971 -39.0790 -35.3033 -35.2950 -35.2563 -15.5379 -15.4546 -15.1878
    13.5439  14.1329  15.7020  15.8518  16.5389  17.2542  18.2586  19.0242
    19.3911  20.4033

          k = 0.0000 0.4444 0.4444 (  2896 PWs)   bands (ev):

   -69.1963 -39.0687 -35.3062 -35.3052 -35.2554 -15.5251 -15.5227 -15.1802
    13.4117  13.9887  15.5245  15.5752  17.4129  17.8961  18.6549  18.9008
    19.4008  20.7940

          k = 0.1111 0.1111 0.1111 (  2896 PWs)   bands (ev):

   -69.2018 -39.1300 -35.2686 -35.2686 -35.2641 -15.2793 -15.2679 -15.2679
    10.9038  14.2404  14.2404  16.4831  16.4831  16.9335  18.9198  18.9198
    19.6881  20.5517

          k = 0.1111 0.1111 0.2222 (  2895 PWs)   bands (ev):

   -69.2008 -39.1208 -35.2783 -35.2671 -35.2645 -15.3776 -15.2651 -15.2611
    11.5911  14.5398  14.5609  16.3352  16.3844  16.9346  18.6343  19.0561
    19.2941  19.7878

          k = 0.1111 0.1111 0.3333 (  2882 PWs)   bands (ev):

   -69.1996 -39.1103 -35.2896 -35.2654 -35.2646 -15.4951 -15.2543 -15.2535
    12.5899  14.7787  14.9755  16.2518  16.3102  16.7829  18.2370  18.8275
    19.0892  19.4705

          k = 0.1111 0.1111 0.4444 (  2887 PWs)   bands (ev):

   -69.1988 -39.1034 -35.2969 -35.2646 -35.2642 -15.5709 -15.2485 -15.2471
    13.6457  14.5230  15.4019  16.0889  16.4649  16.6564  17.9105  18.4433
    18.6936  19.7767

          k = 0.1111 0.2222 0.2222 (  2887 PWs)   bands (ev):

   -69.1998 -39.1101 -35.2814 -35.2747 -35.2647 -15.3745 -15.3566 -15.2544
    12.2054  14.6860  14.9569  16.1103  16.2323  16.6663  18.7815  19.0561
    19.1798  19.5663

          k = 0.1111 0.2222 0.3333 (  2890 PWs)   bands (ev):

   -69.1986 -39.0979 -35.2918 -35.2776 -35.2639 -15.4804 -15.3519 -15.2445
    13.0413  14.7484  15.3806  15.9606  16.1850  16.3790  18.6611  18.7099
    19.1647  19.8266

          k = 0.1111 0.2222 0.4444 (  2890 PWs)   bands (ev):

   -69.1978 -39.0899 -35.2998 -35.2785 -35.2632 -15.5536 -15.3438 -15.2380
    13.8099  14.5251  15.5944  15.8935  16.2214  16.4978  18.2716  18.5499
    18.9348  20.4585

          k = 0.1111 0.3333 0.3333 (  2895 PWs)   bands (ev):

   -69.1975 -39.0837 -35.2959 -35.2905 -35.2626 -15.4694 -15.4560 -15.2338
    13.4993  14.5261  15.7250  16.0008  16.0465  16.3685  18.5354  19.0237
    19.1251  20.3737

          k = 0.1111 0.3333 0.4444 (  2897 PWs)   bands (ev):

   -69.1967 -39.0744 -35.3030 -35.2945 -35.2617 -15.5339 -15.4514 -15.2267
    13.7467  14.3203  15.6452  15.7446  16.4469  17.0263  18.2497  18.9242
    19.2091  20.7265

          k = 0.1111 0.4444 0.4444 (  2897 PWs)   bands (ev):

   -69.1960 -39.0643 -35.3055 -35.3046 -35.2608 -15.5220 -15.5199 -15.2194
    13.6152  14.1780  15.4911  15.5321  17.3107  17.6427  18.3861  18.4790
    19.5197  20.9972

          k = 0.2222 0.2222 0.2222 (  2878 PWs)   bands (ev):

   -69.1987 -39.0987 -35.2797 -35.2797 -35.2733 -15.3653 -15.3496 -15.3496
    12.8020  15.0899  15.0899  15.9663  15.9663  16.1374  18.9765  18.9765
    19.7341  19.8024

          k = 0.2222 0.2222 0.3333 (  2898 PWs)   bands (ev):

   -69.1976 -39.0857 -35.2922 -35.2778 -35.2763 -15.4675 -15.3435 -15.3416
    13.5732  15.2114  15.2570  15.8014  15.8798  15.9771  18.8102  18.8392
    19.2751  20.2079

          k = 0.2222 0.2222 0.4444 (  2894 PWs)   bands (ev):

   -69.1969 -39.0772 -35.3010 -35.2776 -35.2766 -15.5397 -15.3363 -15.3332
    14.1894  14.8282  15.3920  15.6751  16.0224  16.3847  18.3158  18.6282
    19.0642  20.5601

          k = 0.2222 0.3333 0.3333 (  2890 PWs)   bands (ev):

   -69.1965 -39.0718 -35.2941 -35.2908 -35.2762 -15.4567 -15.4488 -15.3316
    14.1091  14.9641  15.6093  15.6577  15.8768  15.9311  18.5796  18.7306
    19.5880  20.3148

          k = 0.2222 0.3333 0.4444 (  2887 PWs)   bands (ev):

   -69.1957 -39.0628 -35.3024 -35.2929 -35.2755 -15.5238 -15.4433 -15.3244
    14.2960  14.7594  15.5192  15.5658  16.1337  16.5588  18.2064  18.5111
    19.6345  20.6974

          k = 0.2222 0.4444 0.4444 (  2897 PWs)   bands (ev):

   -69.1950 -39.0533 -35.3035 -35.3030 -35.2744 -15.5140 -15.5127 -15.3177
    14.1823  14.6490  15.4212  15.4509  16.8833  16.9040  18.0412  18.2427
    19.9152  21.0518

          k = 0.3333 0.3333 0.3333 (  2905 PWs)   bands (ev):

   -69.1953 -39.0583 -35.2921 -35.2921 -35.2908 -15.4431 -15.4406 -15.4406
    14.8420  15.1332  15.5038  15.5038  15.7498  15.7498  18.4431  18.4431
    20.2361  20.2361

          k = 0.3333 0.3333 0.4444 (  2908 PWs)   bands (ev):

   -69.1946 -39.0494 -35.3017 -35.2915 -35.2907 -15.5122 -15.4352 -15.4328
    14.8632  15.0710  15.4798  15.5735  15.8003  16.2235  18.0788  18.2974
    20.2295  20.7874

          k = 0.3333 0.4444 0.4444 (  2922 PWs)   bands (ev):

   -69.1939 -39.0407 -35.3013 -35.3012 -35.2899 -15.5048 -15.5046 -15.4279
    14.9333  15.1378  15.3884  15.4797  16.1966  16.2721  17.9131  18.1063
    20.5434  21.0951

          k = 0.4444 0.4444 0.4444 (  2908 PWs)   bands (ev):

   -69.1931 -39.0325 -35.3001 -35.2999 -35.2999 -15.4992 -15.4992 -15.4987
    15.2795  15.4665  15.4665  15.7982  15.7982  15.8061  17.8847  17.8847
    21.1214  21.1214

     the Fermi energy is    17.6502 ev

!    total energy              =    -448.58604338 Ry
     estimated scf accuracy    <          8.3E-09 Ry
     smearing contrib. (-TS)   =      -0.00008062 Ry
     internal energy E=F+TS    =    -448.58596276 Ry

     The total energy is F=E-TS. E is the sum of the following terms:
     one-electron contribution =    -151.35538521 Ry
     hartree contribution      =      91.63250439 Ry
     xc contribution           =     -52.88876017 Ry
     ewald contribution        =    -259.82070277 Ry
     one-center paw contrib.   =     -76.15361900 Ry

     convergence has been achieved in  31 iterations

     negative rho (up, down):  7.257E-04 0.000E+00

     Forces acting on atoms (cartesian axes, Ry/au):

     atom    1 type  1   force =     0.00000000    0.00000000    0.00000000
     atom    2 type  2   force =     0.00000000    0.00000000    0.00000000

     Total force =     0.000000     Total SCF correction =     0.000000


     Computing stress (Cartesian axis) and pressure


     negative rho (up, down):  7.257E-04 0.000E+00
          total   stress  (Ry/bohr**3)                   (kbar)     P=       31.99
   0.00021748   0.00000000   0.00000000           31.99        0.00        0.00
   0.00000000   0.00021748   0.00000000            0.00       31.99        0.00
   0.00000000   0.00000000   0.00021748            0.00        0.00       31.99


     Writing all to output data dir ./TiFe.save/ :
     XML data file, charge density, pseudopotentials, collected wavefunctions

     init_run     :      0.71s CPU      0.74s WALL (       1 calls)
     electrons    :      9.56s CPU      9.91s WALL (       1 calls)
     forces       :      0.03s CPU      0.03s WALL (       1 calls)
     stress       :      0.15s CPU      0.15s WALL (       1 calls)

     Called by init_run:
     wfcinit      :      0.10s CPU      0.11s WALL (       1 calls)
     potinit      :      0.28s CPU      0.28s WALL (       1 calls)
     hinit0       :      0.31s CPU      0.32s WALL (       1 calls)

     Called by electrons:
     c_bands      :      6.80s CPU      7.03s WALL (      31 calls)
     sum_band     :      1.29s CPU      1.33s WALL (      31 calls)
     v_of_rho     :      0.06s CPU      0.07s WALL (      32 calls)
     newd         :      0.30s CPU      0.30s WALL (      32 calls)
     PAW_pot      :      1.11s CPU      1.15s WALL (      32 calls)
     mix_rho      :      0.02s CPU      0.02s WALL (      31 calls)

     Called by c_bands:
     init_us_2    :      0.11s CPU      0.12s WALL (    2275 calls)
     cegterg      :      6.55s CPU      6.77s WALL (    1085 calls)

     Called by *egterg:
     cdiaghg      :      1.20s CPU      1.23s WALL (    4071 calls)
     h_psi        :      4.58s CPU      4.74s WALL (    4106 calls)
     s_psi        :      0.09s CPU      0.10s WALL (    4106 calls)
     g_psi        :      0.02s CPU      0.02s WALL (    2986 calls)

     Called by h_psi:
     h_psi:calbec :      0.25s CPU      0.26s WALL (    4106 calls)
     vloc_psi     :      4.21s CPU      4.36s WALL (    4106 calls)
     add_vuspsi   :      0.10s CPU      0.10s WALL (    4106 calls)

     General routines
     calbec       :      0.36s CPU      0.37s WALL (    5786 calls)
     fft          :      0.32s CPU      0.32s WALL (     439 calls)
     ffts         :      0.24s CPU      0.24s WALL (      63 calls)
     fftw         :      4.55s CPU      4.71s WALL (  122790 calls)
     interpolate  :      0.24s CPU      0.24s WALL (      32 calls)

     Parallel routines

     PWSCF        :     10.72s CPU     12.24s WALL


   This run was terminated on:  10:39:43  28Oct2025            

=------------------------------------------------------------------------------=
   JOB DONE.
=------------------------------------------------------------------------------=
Note: The following floating-point exceptions are signalling: IEEE_UNDERFLOW_FLAG IEEE_DENORMAL
Note: The following floating-point exceptions are signalling: IEEE_UNDERFLOW_FLAG IEEE_DENORMAL
Note: The following floating-point exceptions are signalling: IEEE_UNDERFLOW_FLAG IEEE_DENORMAL
Note: The following floating-point exceptions are signalling: IEEE_UNDERFLOW_FLAG IEEE_DENORMAL
Note: The following floating-point exceptions are signalling: IEEE_UNDERFLOW_FLAG IEEE_DENORMAL
Note: The following floating-point exceptions are signalling: IEEE_UNDERFLOW_FLAG IEEE_DENORMAL
Note: The following floating-point exceptions are signalling: IEEE_UNDERFLOW_FLAG IEEE_DENORMAL
Note: The following floating-point exceptions are signalling: IEEE_UNDERFLOW_FLAG IEEE_DENORMAL
Note: The following floating-point exceptions are signalling: IEEE_UNDERFLOW_FLAG IEEE_DENORMAL
Note: The following floating-point exceptions are signalling: IEEE_UNDERFLOW_FLAG IEEE_DENORMAL
Note: The following floating-point exceptions are signalling: IEEE_UNDERFLOW_FLAG IEEE_DENORMAL
Note: The following floating-point exceptions are signalling: IEEE_UNDERFLOW_FLAG IEEE_DENORMAL
Note: The following floating-point exceptions are signalling: IEEE_UNDERFLOW_FLAG IEEE_DENORMAL
Note: The following floating-point exceptions are signalling: IEEE_UNDERFLOW_FLAG IEEE_DENORMAL
Note: The following floating-point exceptions are signalling: IEEE_UNDERFLOW_FLAG IEEE_DENORMAL
Note: The following floating-point exceptions are signalling: IEEE_UNDERFLOW_FLAG IEEE_DENORMAL
