
     Program PWSCF v.7.4 starts on 28Oct2025 at 10:39: 7 

     This program is part of the open-source Quantum ESPRESSO suite
     for quantum simulation of materials; please cite
         "P. Giannozzi et al., J. Phys.:Condens. Matter 21 395502 (2009);
         "P. Giannozzi et al., J. Phys.:Condens. Matter 29 465901 (2017);
         "P. Giannozzi et al., J. Chem. Phys. 152 154105 (2020);
          URL http://www.quantum-espresso.org", 
     in publications or presentations arising from this work. More details at
     http://www.quantum-espresso.org/quote

     Parallel version (MPI & OpenMP), running on      16 processor cores
     Number of MPI processes:                16
     Threads/MPI process:                     1

     MPI processes distributed on     1 nodes
     230669 MiB available memory on the printing compute node when the environment starts

     Reading input from TiFe_ecutwfc_convergence/TiFe2_ecut60.in

     Current dimensions of program PWSCF are:
     Max number of different atomic species (ntypx) = 10
     Max number of k-points (npk) =  40000
     Max angular momentum in pseudopotentials (lmaxx) =  4
     file Fe.pbe-spn-kjpaw_psl.0.2.1.UPF: wavefunction(s)  3D renormalized

     IMPORTANT: XC functional enforced from input :
     Exchange-correlation= PBE
                           (   1   4   3   4   0   0   0)
     Any further DFT definition will be discarded
     Please, verify this is what you really want

     Message from routine setup:
     using ibrav=0 with symmetry is DISCOURAGED, use correct ibrav instead

     K-points division:     npool     =       2
     R & G space division:  proc/nbgrp/npool/nimage =       8
     Subspace diagonalization in iterative solution of the eigenvalue problem:
     a serial algorithm will be used


     Parallelization info
     --------------------
     sticks:   dense  smooth     PW     G-vecs:    dense   smooth      PW
     Min          93      74     22                 1894     1352     232
     Max          94      75     24                 1895     1355     235
     Sum         749     593    185                15155    10827    1863

     Using Slab Decomposition



     bravais-lattice index     =            0
     lattice parameter (alat)  =       5.5533  a.u.
     unit-cell volume          =     171.2590 (a.u.)^3
     number of atoms/cell      =            2
     number of atomic types    =            2
     number of electrons       =        28.00
     number of Kohn-Sham states=           18
     kinetic-energy cutoff     =      60.0000  Ry
     charge density cutoff     =     300.0000  Ry
     scf convergence threshold =      1.0E-08
     mixing beta               =       0.7000
     number of iterations used =            8  plain     mixing
     Exchange-correlation= PBE
                           (   1   4   3   4   0   0   0)

     celldm(1)=   5.553300  celldm(2)=   0.000000  celldm(3)=   0.000000
     celldm(4)=   0.000000  celldm(5)=   0.000000  celldm(6)=   0.000000

     crystal axes: (cart. coord. in units of alat)
               a(1) = (   1.000000   0.000000   0.000000 )  
               a(2) = (   0.000000   1.000000   0.000000 )  
               a(3) = (   0.000000   0.000000   1.000000 )  

     reciprocal axes: (cart. coord. in units 2 pi/alat)
               b(1) = (  1.000000  0.000000  0.000000 )  
               b(2) = (  0.000000  1.000000  0.000000 )  
               b(3) = (  0.000000  0.000000  1.000000 )  


     PseudoPot. # 1 for Fe read from file:
     ./Fe.pbe-spn-kjpaw_psl.0.2.1.UPF
     MD5 check sum: e86618425769142926afa95317d90200
     Pseudo is Projector augmented-wave + core cor, Zval = 16.0
     Generated using "atomic" code by A. Dal Corso  v.5.0.99 svn rev. 10869
     Shape of augmentation charge: PSQ
     Using radial grid of 1191 points,  6 beta functions with: 
                l(1) =   0
                l(2) =   0
                l(3) =   1
                l(4) =   1
                l(5) =   2
                l(6) =   2
     Q(r) pseudized with 0 coefficients 


     PseudoPot. # 2 for Ti read from file:
     ./Ti_pbe_v1.4.uspp.F.UPF
     MD5 check sum: 88a00a6731bd790ddea75d31a80cb452
     Pseudo is Ultrasoft + core correction, Zval = 12.0
     Generated by new atomic code, or converted to UPF format
     Using radial grid of  851 points,  6 beta functions with: 
                l(1) =   0
                l(2) =   0
                l(3) =   1
                l(4) =   1
                l(5) =   2
                l(6) =   2
     Q(r) pseudized with  6 coefficients,  rinner =    1.000   1.000   1.000
                                                       1.000   1.000

     atomic species   valence    mass     pseudopotential
     Fe               16.00    55.84500     Fe( 1.00)
     Ti               12.00    47.86700     Ti( 1.00)

     48 Sym. Ops., with inversion, found



   Cartesian axes

     site n.     atom                  positions (alat units)
         1        Fe     tau(   1) = (   0.5000000   0.5000000   0.5000000  )
         2        Ti     tau(   2) = (   0.0000000   0.0000000   0.0000000  )

     number of k points=    35  Marzari-Vanderbilt smearing, width (Ry)=  0.0050
                       cart. coord. in units 2pi/alat
        k(    1) = (   0.0000000   0.0000000   0.0000000), wk =   0.0027435
        k(    2) = (   0.0000000   0.0000000   0.1111111), wk =   0.0164609
        k(    3) = (   0.0000000   0.0000000   0.2222222), wk =   0.0164609
        k(    4) = (   0.0000000   0.0000000   0.3333333), wk =   0.0164609
        k(    5) = (   0.0000000   0.0000000   0.4444444), wk =   0.0164609
        k(    6) = (   0.0000000   0.1111111   0.1111111), wk =   0.0329218
        k(    7) = (   0.0000000   0.1111111   0.2222222), wk =   0.0658436
        k(    8) = (   0.0000000   0.1111111   0.3333333), wk =   0.0658436
        k(    9) = (   0.0000000   0.1111111   0.4444444), wk =   0.0658436
        k(   10) = (   0.0000000   0.2222222   0.2222222), wk =   0.0329218
        k(   11) = (   0.0000000   0.2222222   0.3333333), wk =   0.0658436
        k(   12) = (   0.0000000   0.2222222   0.4444444), wk =   0.0658436
        k(   13) = (   0.0000000   0.3333333   0.3333333), wk =   0.0329218
        k(   14) = (   0.0000000   0.3333333   0.4444444), wk =   0.0658436
        k(   15) = (   0.0000000   0.4444444   0.4444444), wk =   0.0329218
        k(   16) = (   0.1111111   0.1111111   0.1111111), wk =   0.0219479
        k(   17) = (   0.1111111   0.1111111   0.2222222), wk =   0.0658436
        k(   18) = (   0.1111111   0.1111111   0.3333333), wk =   0.0658436
        k(   19) = (   0.1111111   0.1111111   0.4444444), wk =   0.0658436
        k(   20) = (   0.1111111   0.2222222   0.2222222), wk =   0.0658436
        k(   21) = (   0.1111111   0.2222222   0.3333333), wk =   0.1316872
        k(   22) = (   0.1111111   0.2222222   0.4444444), wk =   0.1316872
        k(   23) = (   0.1111111   0.3333333   0.3333333), wk =   0.0658436
        k(   24) = (   0.1111111   0.3333333   0.4444444), wk =   0.1316872
        k(   25) = (   0.1111111   0.4444444   0.4444444), wk =   0.0658436
        k(   26) = (   0.2222222   0.2222222   0.2222222), wk =   0.0219479
        k(   27) = (   0.2222222   0.2222222   0.3333333), wk =   0.0658436
        k(   28) = (   0.2222222   0.2222222   0.4444444), wk =   0.0658436
        k(   29) = (   0.2222222   0.3333333   0.3333333), wk =   0.0658436
        k(   30) = (   0.2222222   0.3333333   0.4444444), wk =   0.1316872
        k(   31) = (   0.2222222   0.4444444   0.4444444), wk =   0.0658436
        k(   32) = (   0.3333333   0.3333333   0.3333333), wk =   0.0219479
        k(   33) = (   0.3333333   0.3333333   0.4444444), wk =   0.0658436
        k(   34) = (   0.3333333   0.4444444   0.4444444), wk =   0.0658436
        k(   35) = (   0.4444444   0.4444444   0.4444444), wk =   0.0219479

     Dense  grid:    15155 G-vectors     FFT dimensions: (  32,  32,  32)

     Smooth grid:    10827 G-vectors     FFT dimensions: (  27,  27,  27)

     Estimated max dynamical RAM per process >       7.78 MB

     Estimated total dynamical RAM >     120.85 MB

     Check: negative core charge=   -0.000239

     Initial potential from superposition of free atoms

     starting charge      26.9995, renormalised to      28.0000

     negative rho (up, down):  1.206E-03 0.000E+00
     Starting wfcs are   23 randomized atomic wfcs
     Checking if some PAW data can be deallocated... 

     total cpu time spent up to now is        0.6 secs

     per-process dynamical memory:   116.2 Mb

     Self-consistent Calculation

     iteration #  1     ecut=    60.00 Ry     beta= 0.70
     Davidson diagonalization with overlap
     ethr =  1.00E-02,  avg # of iterations =  2.1

     negative rho (up, down):  7.189E-04 0.000E+00

     total cpu time spent up to now is        0.8 secs

     WARNING: integrated charge=    28.00076311, expected=    28.00000000

     total energy              =    -434.89637782 Ry
     estimated scf accuracy    <      17.45393452 Ry

     iteration #  2     ecut=    60.00 Ry     beta= 0.70
     Davidson diagonalization with overlap
     ethr =  1.00E-02,  avg # of iterations =  6.0

     negative rho (up, down):  2.825E-04 0.000E+00

     total cpu time spent up to now is        1.0 secs

     WARNING: integrated charge=    28.00058195, expected=    28.00000000

     total energy              =    -448.57312767 Ry
     estimated scf accuracy    <      65.77912949 Ry

     iteration #  3     ecut=    60.00 Ry     beta= 0.70
     Davidson diagonalization with overlap
     ethr =  1.00E-02,  avg # of iterations =  3.2

     negative rho (up, down):  5.909E-04 0.000E+00

     total cpu time spent up to now is        1.2 secs

     WARNING: integrated charge=    28.00046403, expected=    28.00000000

     total energy              =    -448.57527843 Ry
     estimated scf accuracy    <      16.78361608 Ry

     iteration #  4     ecut=    60.00 Ry     beta= 0.70
     Davidson diagonalization with overlap
     ethr =  1.00E-02,  avg # of iterations =  2.2

     negative rho (up, down):  6.118E-04 0.000E+00

     total cpu time spent up to now is        1.4 secs

     WARNING: integrated charge=    28.00045216, expected=    28.00000000

     total energy              =    -449.10683444 Ry
     estimated scf accuracy    <       4.65537367 Ry

     iteration #  5     ecut=    60.00 Ry     beta= 0.70
     Davidson diagonalization with overlap
     ethr =  1.00E-02,  avg # of iterations =  1.0

     negative rho (up, down):  6.315E-04 0.000E+00

     total cpu time spent up to now is        1.5 secs

     WARNING: integrated charge=    28.00043851, expected=    28.00000000

     total energy              =    -449.12120013 Ry
     estimated scf accuracy    <       4.27587980 Ry

     iteration #  6     ecut=    60.00 Ry     beta= 0.70
     Davidson diagonalization with overlap
     ethr =  1.00E-02,  avg # of iterations =  1.0

     negative rho (up, down):  1.052E-03 0.000E+00

     total cpu time spent up to now is        1.6 secs

     WARNING: integrated charge=    28.00021792, expected=    28.00000000

     total energy              =    -447.94247009 Ry
     estimated scf accuracy    <       4.41846977 Ry

     iteration #  7     ecut=    60.00 Ry     beta= 0.70
     Davidson diagonalization with overlap
     ethr =  1.00E-02,  avg # of iterations =  3.1

     negative rho (up, down):  9.914E-04 0.000E+00

     total cpu time spent up to now is        1.8 secs

     WARNING: integrated charge=    28.00018313, expected=    28.00000000

     total energy              =    -448.50263117 Ry
     estimated scf accuracy    <       2.76405468 Ry

     iteration #  8     ecut=    60.00 Ry     beta= 0.70
     Davidson diagonalization with overlap
     ethr =  9.87E-03,  avg # of iterations =  1.0

     negative rho (up, down):  8.985E-04 0.000E+00

     total cpu time spent up to now is        1.9 secs

     WARNING: integrated charge=    28.00016816, expected=    28.00000000

     total energy              =    -448.54094809 Ry
     estimated scf accuracy    <       0.30385562 Ry

     iteration #  9     ecut=    60.00 Ry     beta= 0.70
     Davidson diagonalization with overlap
     ethr =  1.09E-03,  avg # of iterations =  2.4

     negative rho (up, down):  9.047E-04 0.000E+00

     total cpu time spent up to now is        2.1 secs

     WARNING: integrated charge=    28.00016745, expected=    28.00000000

     total energy              =    -448.59627396 Ry
     estimated scf accuracy    <       0.16371910 Ry

     iteration # 10     ecut=    60.00 Ry     beta= 0.70
     Davidson diagonalization with overlap
     ethr =  5.85E-04,  avg # of iterations =  1.2

     negative rho (up, down):  9.039E-04 0.000E+00

     total cpu time spent up to now is        2.2 secs

     WARNING: integrated charge=    28.00011402, expected=    28.00000000

     total energy              =    -448.59115462 Ry
     estimated scf accuracy    <       0.17536373 Ry

     iteration # 11     ecut=    60.00 Ry     beta= 0.70
     Davidson diagonalization with overlap
     ethr =  5.85E-04,  avg # of iterations =  1.0

     negative rho (up, down):  1.051E-03 0.000E+00

     total cpu time spent up to now is        2.4 secs

     WARNING: integrated charge=    28.00009869, expected=    28.00000000

     total energy              =    -448.57030847 Ry
     estimated scf accuracy    <       0.10020782 Ry

     iteration # 12     ecut=    60.00 Ry     beta= 0.70
     Davidson diagonalization with overlap
     ethr =  3.58E-04,  avg # of iterations =  2.4

     negative rho (up, down):  1.147E-03 0.000E+00

     total cpu time spent up to now is        2.5 secs

     WARNING: integrated charge=    28.00007474, expected=    28.00000000

     total energy              =    -448.58874246 Ry
     estimated scf accuracy    <       0.08833921 Ry

     iteration # 13     ecut=    60.00 Ry     beta= 0.70
     Davidson diagonalization with overlap
     ethr =  3.15E-04,  avg # of iterations =  4.0

     negative rho (up, down):  6.107E-04 0.000E+00

     total cpu time spent up to now is        2.7 secs

     WARNING: integrated charge=    28.00013552, expected=    28.00000000

     total energy              =    -448.50645903 Ry
     estimated scf accuracy    <       0.13606572 Ry

     iteration # 14     ecut=    60.00 Ry     beta= 0.70
     Davidson diagonalization with overlap
     ethr =  3.15E-04,  avg # of iterations =  5.0

     negative rho (up, down):  6.767E-04 0.000E+00

     total cpu time spent up to now is        2.9 secs

     WARNING: integrated charge=    28.00007179, expected=    28.00000000

     total energy              =    -448.68654094 Ry
     estimated scf accuracy    <       1.13165087 Ry

     iteration # 15     ecut=    60.00 Ry     beta= 0.70
     Davidson diagonalization with overlap
     ethr =  3.15E-04,  avg # of iterations =  1.2

     negative rho (up, down):  8.643E-04 0.000E+00

     total cpu time spent up to now is        3.0 secs

     WARNING: integrated charge=    28.00009968, expected=    28.00000000

     total energy              =    -448.56627727 Ry
     estimated scf accuracy    <       0.89417120 Ry

     iteration # 16     ecut=    60.00 Ry     beta= 0.70
     Davidson diagonalization with overlap
     ethr =  3.15E-04,  avg # of iterations =  3.6

     negative rho (up, down):  7.523E-04 0.000E+00

     total cpu time spent up to now is        3.2 secs

     WARNING: integrated charge=    28.00004482, expected=    28.00000000

     total energy              =    -448.62981993 Ry
     estimated scf accuracy    <       0.31715266 Ry

     iteration # 17     ecut=    60.00 Ry     beta= 0.70
     Davidson diagonalization with overlap
     ethr =  3.15E-04,  avg # of iterations =  2.0

     negative rho (up, down):  8.494E-04 0.000E+00

     total cpu time spent up to now is        3.4 secs

     WARNING: integrated charge=    28.00008293, expected=    28.00000000

     total energy              =    -448.60212272 Ry
     estimated scf accuracy    <       0.51381854 Ry

     iteration # 18     ecut=    60.00 Ry     beta= 0.70
     Davidson diagonalization with overlap
     ethr =  3.15E-04,  avg # of iterations =  1.0

     negative rho (up, down):  8.934E-04 0.000E+00

     total cpu time spent up to now is        3.5 secs

     WARNING: integrated charge=    28.00002970, expected=    28.00000000

     total energy              =    -448.59222544 Ry
     estimated scf accuracy    <       0.23378620 Ry

     iteration # 19     ecut=    60.00 Ry     beta= 0.70
     Davidson diagonalization with overlap
     ethr =  3.15E-04,  avg # of iterations =  1.0

     negative rho (up, down):  9.488E-04 0.000E+00

     total cpu time spent up to now is        3.6 secs

     WARNING: integrated charge=    28.00000392, expected=    28.00000000

     total energy              =    -448.58066528 Ry
     estimated scf accuracy    <       0.15515098 Ry

     iteration # 20     ecut=    60.00 Ry     beta= 0.70
     Davidson diagonalization with overlap
     ethr =  3.15E-04,  avg # of iterations =  1.5

     negative rho (up, down):  9.940E-04 0.000E+00

     total cpu time spent up to now is        3.8 secs

     WARNING: integrated charge=    28.00000324, expected=    28.00000000

     total energy              =    -448.57889899 Ry
     estimated scf accuracy    <       0.04475400 Ry

     iteration # 21     ecut=    60.00 Ry     beta= 0.70
     Davidson diagonalization with overlap
     ethr =  1.60E-04,  avg # of iterations =  1.6

     negative rho (up, down):  1.012E-03 0.000E+00

     total cpu time spent up to now is        3.9 secs

     total energy              =    -448.58001980 Ry
     estimated scf accuracy    <       0.00519563 Ry

     iteration # 22     ecut=    60.00 Ry     beta= 0.70
     Davidson diagonalization with overlap
     ethr =  1.86E-05,  avg # of iterations =  4.5

     negative rho (up, down):  1.003E-03 0.000E+00

     total cpu time spent up to now is        4.1 secs

     total energy              =    -448.58098863 Ry
     estimated scf accuracy    <       0.00147391 Ry

     iteration # 23     ecut=    60.00 Ry     beta= 0.70
     Davidson diagonalization with overlap
     ethr =  5.26E-06,  avg # of iterations =  1.7

     negative rho (up, down):  1.003E-03 0.000E+00

     total cpu time spent up to now is        4.2 secs

     total energy              =    -448.58104723 Ry
     estimated scf accuracy    <       0.00019627 Ry

     iteration # 24     ecut=    60.00 Ry     beta= 0.70
     Davidson diagonalization with overlap
     ethr =  7.01E-07,  avg # of iterations =  3.5

     negative rho (up, down):  1.003E-03 0.000E+00

     total cpu time spent up to now is        4.4 secs

     total energy              =    -448.58106986 Ry
     estimated scf accuracy    <       0.00000364 Ry

     iteration # 25     ecut=    60.00 Ry     beta= 0.70
     Davidson diagonalization with overlap
     ethr =  1.30E-08,  avg # of iterations =  5.0

     negative rho (up, down):  1.003E-03 0.000E+00

     total cpu time spent up to now is        4.6 secs

     total energy              =    -448.58107525 Ry
     estimated scf accuracy    <       0.00000217 Ry

     iteration # 26     ecut=    60.00 Ry     beta= 0.70
     Davidson diagonalization with overlap
     ethr =  7.76E-09,  avg # of iterations =  1.0

     negative rho (up, down):  1.003E-03 0.000E+00

     total cpu time spent up to now is        4.8 secs

     total energy              =    -448.58107484 Ry
     estimated scf accuracy    <       0.00000231 Ry

     iteration # 27     ecut=    60.00 Ry     beta= 0.70
     Davidson diagonalization with overlap
     ethr =  7.76E-09,  avg # of iterations =  1.4

     negative rho (up, down):  1.003E-03 0.000E+00

     total cpu time spent up to now is        4.9 secs

     End of self-consistent calculation

          k = 0.0000 0.0000 0.0000 (  1357 PWs)   bands (ev):

   -69.2035 -39.1335 -35.2564 -35.2564 -35.2564 -15.2280 -15.2280 -15.2280
    10.1653  13.8831  13.8831  16.6534  16.6534  16.6534  19.0220  19.0220
    20.9488  20.9488

          k = 0.0000 0.0000 0.1111 (  1349 PWs)   bands (ev):

   -69.2030 -39.1303 -35.2600 -35.2558 -35.2558 -15.2711 -15.2254 -15.2254
    10.4228  14.0073  14.0154  16.6349  16.6349  16.7093  18.8644  19.0799
    20.5876  20.5876

          k = 0.0000 0.0000 0.2222 (  1342 PWs)   bands (ev):

   -69.2019 -39.1224 -35.2694 -35.2543 -35.2543 -15.3792 -15.2189 -15.2189
    11.1573  14.3307  14.3660  16.5983  16.5983  16.8599  18.4179  19.1848
    19.8246  19.8246

          k = 0.0000 0.0000 0.3333 (  1346 PWs)   bands (ev):

   -69.2007 -39.1134 -35.2802 -35.2527 -35.2527 -15.5002 -15.2115 -15.2115
    12.2495  14.5802  14.9076  16.5799  16.5799  17.0513  17.7716  19.0925
    19.0989  19.0989

          k = 0.0000 0.0000 0.4444 (  1354 PWs)   bands (ev):

   -69.2000 -39.1075 -35.2874 -35.2517 -35.2517 -15.5782 -15.2066 -15.2066
    13.4528  14.3764  15.4652  16.5877  16.5877  17.1429  17.1918  18.6645
    18.6645  18.7145

          k = 0.0000 0.1111 0.1111 (  1337 PWs)   bands (ev):

   -69.2025 -39.1269 -35.2614 -35.2578 -35.2552 -15.2724 -15.2635 -15.2227
    10.6725  14.1195  14.1517  16.5137  16.5999  16.8414  18.8531  19.0381
    20.2215  20.2294

          k = 0.0000 0.1111 0.2222 (  1335 PWs)   bands (ev):

   -69.2014 -39.1183 -35.2702 -35.2582 -35.2537 -15.3749 -15.2595 -15.2157
    11.3810  14.4084  14.5069  16.4056  16.5219  16.9659  18.5365  19.1253
    19.5273  19.6306

          k = 0.0000 0.1111 0.3333 (  1348 PWs)   bands (ev):

   -69.2004 -39.1085 -35.2813 -35.2578 -35.2521 -15.4941 -15.2506 -15.2078
    12.4220  14.6485  14.9889  16.3741  16.4472  16.9684  18.0315  18.7453
    19.2082  19.3091

          k = 0.0000 0.1111 0.4444 (  1344 PWs)   bands (ev):

   -69.1995 -39.1021 -35.2884 -35.2572 -35.2512 -15.5708 -15.2447 -15.2026
    13.5440  14.4333  15.4737  16.3715  16.4199  16.8520  17.6186  18.3516
    19.0689  19.1404

          k = 0.0000 0.2222 0.2222 (  1336 PWs)   bands (ev):

   -69.2004 -39.1078 -35.2742 -35.2664 -35.2523 -15.3730 -15.3524 -15.2076
    11.9992  14.5347  14.9254  16.1617  16.3874  16.9153  18.6944  18.9379
    19.0957  19.4536

          k = 0.0000 0.2222 0.3333 (  1344 PWs)   bands (ev):

   -69.1993 -39.0960 -35.2843 -35.2701 -35.2509 -15.4785 -15.3486 -15.1984
    12.8482  14.5741  15.4361  16.0258  16.3594  16.6243  18.4636  18.5805
    19.2896  19.5576

          k = 0.0000 0.2222 0.4444 (  1339 PWs)   bands (ev):

   -69.1985 -39.0882 -35.2918 -35.2714 -35.2499 -15.5522 -15.3403 -15.1924
    13.6473  14.3581  15.7922  16.0460  16.3031  16.5337  18.1811  18.3913
    19.4618  19.7771

          k = 0.0000 0.3333 0.3333 (  1336 PWs)   bands (ev):

   -69.1981 -39.0817 -35.2890 -35.2829 -35.2493 -15.4675 -15.4518 -15.1878
    13.2896  14.3518  15.7694  16.1051  16.1841  16.6097  18.5165  18.9606
    19.1508  20.0145

          k = 0.0000 0.3333 0.4444 (  1338 PWs)   bands (ev):

   -69.1973 -39.0723 -35.2958 -35.2876 -35.2484 -15.5309 -15.4476 -15.1808
    13.5566  14.1360  15.6967  15.8463  16.5633  17.2711  18.2800  19.0263
    19.4118  20.4046

          k = 0.0000 0.4444 0.4444 (  1340 PWs)   bands (ev):

   -69.1966 -39.0619 -35.2988 -35.2978 -35.2474 -15.5181 -15.5157 -15.1732
    13.4247  13.9885  15.5197  15.5703  17.4398  17.9191  18.6764  18.9257
    19.4017  20.7943

          k = 0.1111 0.1111 0.1111 (  1334 PWs)   bands (ev):

   -69.2021 -39.1233 -35.2608 -35.2608 -35.2562 -15.2723 -15.2608 -15.2608
    10.9160  14.2571  14.2571  16.4754  16.4754  16.9230  18.9360  18.9360
    19.6961  20.5559

          k = 0.1111 0.1111 0.2222 (  1346 PWs)   bands (ev):

   -69.2011 -39.1141 -35.2707 -35.2594 -35.2568 -15.3706 -15.2581 -15.2541
    11.6040  14.5569  14.5785  16.3282  16.3778  16.9242  18.6478  19.0730
    19.3032  19.7944

          k = 0.1111 0.1111 0.3333 (  1341 PWs)   bands (ev):

   -69.1999 -39.1036 -35.2821 -35.2576 -35.2568 -15.4882 -15.2473 -15.2465
    12.6035  14.7959  14.9939  16.2471  16.3041  16.7751  18.2452  18.8437
    19.0985  19.4816

          k = 0.1111 0.1111 0.4444 (  1339 PWs)   bands (ev):

   -69.1991 -39.0967 -35.2896 -35.2568 -35.2565 -15.5640 -15.2415 -15.2401
    13.6599  14.5378  15.4229  16.0853  16.4604  16.6507  17.9127  18.4636
    18.7051  19.7863

          k = 0.1111 0.2222 0.2222 (  1339 PWs)   bands (ev):

   -69.2000 -39.1034 -35.2736 -35.2672 -35.2569 -15.3675 -15.3496 -15.2474
    12.2185  14.7029  14.9756  16.1041  16.2282  16.6581  18.7947  19.0733
    19.1862  19.5733

          k = 0.1111 0.2222 0.3333 (  1345 PWs)   bands (ev):

   -69.1989 -39.0912 -35.2844 -35.2700 -35.2561 -15.4734 -15.3449 -15.2375
    13.0543  14.7624  15.4000  15.9553  16.1853  16.3744  18.6753  18.7193
    19.1782  19.8325

          k = 0.1111 0.2222 0.4444 (  1337 PWs)   bands (ev):

   -69.1981 -39.0832 -35.2923 -35.2708 -35.2553 -15.5467 -15.3368 -15.2310
    13.8229  14.5340  15.6144  15.8885  16.2177  16.5047  18.2923  18.5527
    18.9493  20.4648

          k = 0.1111 0.3333 0.3333 (  1343 PWs)   bands (ev):

   -69.1977 -39.0770 -35.2884 -35.2830 -35.2548 -15.4625 -15.4489 -15.2268
    13.5112  14.5342  15.7203  15.9969  16.0678  16.3773  18.5534  19.0439
    19.1276  20.3772

          k = 0.1111 0.3333 0.4444 (  1340 PWs)   bands (ev):

   -69.1969 -39.0677 -35.2956 -35.2869 -35.2539 -15.5269 -15.4444 -15.2198
    13.7597  14.3226  15.6409  15.7415  16.4672  17.0424  18.2718  18.9429
    19.2108  20.7288

          k = 0.1111 0.4444 0.4444 (  1351 PWs)   bands (ev):

   -69.1963 -39.0576 -35.2981 -35.2972 -35.2530 -15.5150 -15.5129 -15.2124
    13.6287  14.1773  15.4867  15.5277  17.3357  17.6629  18.4070  18.5016
    19.5202  21.0018

          k = 0.2222 0.2222 0.2222 (  1346 PWs)   bands (ev):

   -69.1991 -39.0920 -35.2721 -35.2721 -35.2658 -15.3583 -15.3426 -15.3426
    12.8155  15.1084  15.1084  15.9616  15.9616  16.1320  18.9932  18.9932
    19.7385  19.8063

          k = 0.2222 0.2222 0.3333 (  1344 PWs)   bands (ev):

   -69.1979 -39.0790 -35.2847 -35.2703 -35.2686 -15.4605 -15.3365 -15.3346
    13.5865  15.2213  15.2754  15.7983  15.8774  15.9808  18.8276  18.8590
    19.2776  20.2109

          k = 0.2222 0.2222 0.4444 (  1350 PWs)   bands (ev):

   -69.1972 -39.0705 -35.2936 -35.2699 -35.2692 -15.5327 -15.3294 -15.3262
    14.2018  14.8321  15.4116  15.6714  16.0183  16.3967  18.3384  18.6457
    19.0660  20.5627

          k = 0.2222 0.3333 0.3333 (  1348 PWs)   bands (ev):

   -69.1968 -39.0651 -35.2867 -35.2833 -35.2686 -15.4498 -15.4418 -15.3247
    14.1220  14.9686  15.6068  15.6613  15.8810  15.9493  18.5995  18.7518
    19.5905  20.3179

          k = 0.2222 0.3333 0.4444 (  1349 PWs)   bands (ev):

   -69.1960 -39.0560 -35.2950 -35.2855 -35.2679 -15.5168 -15.4363 -15.3175
    14.3094  14.7586  15.5218  15.5640  16.1439  16.5757  18.2302  18.5318
    19.6367  20.7011

          k = 0.2222 0.4444 0.4444 (  1353 PWs)   bands (ev):

   -69.1953 -39.0466 -35.2961 -35.2957 -35.2668 -15.5070 -15.5057 -15.3107
    14.1968  14.6466  15.4180  15.4483  16.9017  16.9193  18.0663  18.2659
    19.9171  21.0577

          k = 0.3333 0.3333 0.3333 (  1349 PWs)   bands (ev):

   -69.1956 -39.0516 -35.2846 -35.2846 -35.2833 -15.4361 -15.4336 -15.4336
    14.8567  15.1292  15.5047  15.5047  15.7634  15.7634  18.4655  18.4655
    20.2398  20.2398

          k = 0.3333 0.3333 0.4444 (  1349 PWs)   bands (ev):

   -69.1949 -39.0427 -35.2943 -35.2840 -35.2832 -15.5053 -15.4283 -15.4258
    14.8731  15.0674  15.4854  15.5814  15.7998  16.2413  18.1042  18.3207
    20.2333  20.7921

          k = 0.3333 0.4444 0.4444 (  1359 PWs)   bands (ev):

   -69.1943 -39.0340 -35.2940 -35.2938 -35.2825 -15.4979 -15.4976 -15.4210
    14.9456  15.1351  15.3866  15.4800  16.2094  16.2857  17.9403  18.1317
    20.5477  21.1014

          k = 0.4444 0.4444 0.4444 (  1352 PWs)   bands (ev):

   -69.1935 -39.0257 -35.2926 -35.2924 -35.2924 -15.4923 -15.4923 -15.4917
    15.2794  15.4641  15.4641  15.8114  15.8114  15.8164  17.9125  17.9125
    21.1278  21.1278

     the Fermi energy is    17.6620 ev

!    total energy              =    -448.58107503 Ry
     estimated scf accuracy    <          3.8E-09 Ry
     smearing contrib. (-TS)   =      -0.00006546 Ry
     internal energy E=F+TS    =    -448.58100957 Ry

     The total energy is F=E-TS. E is the sum of the following terms:
     one-electron contribution =    -151.34707393 Ry
     hartree contribution      =      91.63295709 Ry
     xc contribution           =     -52.89406373 Ry
     ewald contribution        =    -259.82070277 Ry
     one-center paw contrib.   =     -76.15212623 Ry

     convergence has been achieved in  27 iterations

     negative rho (up, down):  1.003E-03 0.000E+00

     Forces acting on atoms (cartesian axes, Ry/au):

     atom    1 type  1   force =     0.00000000    0.00000000    0.00000000
     atom    2 type  2   force =     0.00000000    0.00000000    0.00000000

     Total force =     0.000000     Total SCF correction =     0.000000


     Computing stress (Cartesian axis) and pressure


     negative rho (up, down):  1.003E-03 0.000E+00
          total   stress  (Ry/bohr**3)                   (kbar)     P=       36.47
   0.00024793   0.00000000   0.00000000           36.47        0.00        0.00
   0.00000000   0.00024793   0.00000000            0.00       36.47        0.00
   0.00000000   0.00000000   0.00024793            0.00        0.00       36.47


     Writing all to output data dir ./TiFe.save/ :
     XML data file, charge density, pseudopotentials, collected wavefunctions

     init_run     :      0.36s CPU      0.38s WALL (       1 calls)
     electrons    :      4.05s CPU      4.33s WALL (       1 calls)
     forces       :      0.01s CPU      0.01s WALL (       1 calls)
     stress       :      0.07s CPU      0.07s WALL (       1 calls)

     Called by init_run:
     wfcinit      :      0.04s CPU      0.05s WALL (       1 calls)
     potinit      :      0.11s CPU      0.12s WALL (       1 calls)
     hinit0       :      0.19s CPU      0.20s WALL (       1 calls)

     Called by electrons:
     c_bands      :      2.42s CPU      2.52s WALL (      27 calls)
     sum_band     :      0.48s CPU      0.51s WALL (      27 calls)
     v_of_rho     :      0.04s CPU      0.04s WALL (      28 calls)
     newd         :      0.12s CPU      0.13s WALL (      28 calls)
     PAW_pot      :      1.00s CPU      1.09s WALL (      28 calls)
     mix_rho      :      0.01s CPU      0.01s WALL (      27 calls)

     Called by c_bands:
     init_us_2    :      0.05s CPU      0.05s WALL (    1026 calls)
     cegterg      :      2.22s CPU      2.31s WALL (     486 calls)

     Called by *egterg:
     cdiaghg      :      0.45s CPU      0.47s WALL (    1631 calls)
     h_psi        :      1.53s CPU      1.60s WALL (    1649 calls)
     s_psi        :      0.03s CPU      0.04s WALL (    1649 calls)
     g_psi        :      0.01s CPU      0.01s WALL (    1145 calls)

     Called by h_psi:
     h_psi:calbec :      0.07s CPU      0.08s WALL (    1649 calls)
     vloc_psi     :      1.42s CPU      1.48s WALL (    1649 calls)
     add_vuspsi   :      0.03s CPU      0.04s WALL (    1649 calls)

     General routines
     calbec       :      0.11s CPU      0.12s WALL (    2441 calls)
     fft          :      0.15s CPU      0.16s WALL (     387 calls)
     ffts         :      0.07s CPU      0.07s WALL (      55 calls)
     fftw         :      1.53s CPU      1.60s WALL (   51368 calls)
     interpolate  :      0.07s CPU      0.07s WALL (      28 calls)

     Parallel routines

     PWSCF        :      4.71s CPU      5.62s WALL


   This run was terminated on:  10:39:13  28Oct2025            

=------------------------------------------------------------------------------=
   JOB DONE.
=------------------------------------------------------------------------------=
Note: The following floating-point exceptions are signalling: IEEE_UNDERFLOW_FLAG IEEE_DENORMAL
Note: The following floating-point exceptions are signalling: IEEE_UNDERFLOW_FLAG IEEE_DENORMAL
Note: The following floating-point exceptions are signalling: IEEE_UNDERFLOW_FLAG IEEE_DENORMAL
Note: The following floating-point exceptions are signalling: IEEE_UNDERFLOW_FLAG IEEE_DENORMAL
Note: The following floating-point exceptions are signalling: IEEE_UNDERFLOW_FLAG IEEE_DENORMAL
Note: The following floating-point exceptions are signalling: IEEE_UNDERFLOW_FLAG IEEE_DENORMAL
Note: The following floating-point exceptions are signalling: IEEE_UNDERFLOW_FLAG IEEE_DENORMAL
Note: The following floating-point exceptions are signalling: IEEE_UNDERFLOW_FLAG IEEE_DENORMAL
Note: The following floating-point exceptions are signalling: IEEE_UNDERFLOW_FLAG IEEE_DENORMAL
Note: The following floating-point exceptions are signalling: IEEE_UNDERFLOW_FLAG IEEE_DENORMAL
Note: The following floating-point exceptions are signalling: IEEE_UNDERFLOW_FLAG IEEE_DENORMAL
Note: The following floating-point exceptions are signalling: IEEE_UNDERFLOW_FLAG IEEE_DENORMAL
Note: The following floating-point exceptions are signalling: IEEE_UNDERFLOW_FLAG IEEE_DENORMAL
Note: The following floating-point exceptions are signalling: IEEE_UNDERFLOW_FLAG IEEE_DENORMAL
Note: The following floating-point exceptions are signalling: IEEE_UNDERFLOW_FLAG IEEE_DENORMAL
Note: The following floating-point exceptions are signalling: IEEE_UNDERFLOW_FLAG IEEE_DENORMAL
