
     Program PWSCF v.7.4 starts on 28Oct2025 at 10:39:43 

     This program is part of the open-source Quantum ESPRESSO suite
     for quantum simulation of materials; please cite
         "P. Giannozzi et al., J. Phys.:Condens. Matter 21 395502 (2009);
         "P. Giannozzi et al., J. Phys.:Condens. Matter 29 465901 (2017);
         "P. Giannozzi et al., J. Chem. Phys. 152 154105 (2020);
          URL http://www.quantum-espresso.org", 
     in publications or presentations arising from this work. More details at
     http://www.quantum-espresso.org/quote

     Parallel version (MPI & OpenMP), running on      16 processor cores
     Number of MPI processes:                16
     Threads/MPI process:                     1

     MPI processes distributed on     1 nodes
     230590 MiB available memory on the printing compute node when the environment starts

     Reading input from TiFe_ecutwfc_convergence/TiFe2_ecut120.in

     Current dimensions of program PWSCF are:
     Max number of different atomic species (ntypx) = 10
     Max number of k-points (npk) =  40000
     Max angular momentum in pseudopotentials (lmaxx) =  4
     file Fe.pbe-spn-kjpaw_psl.0.2.1.UPF: wavefunction(s)  3D renormalized

     IMPORTANT: XC functional enforced from input :
     Exchange-correlation= PBE
                           (   1   4   3   4   0   0   0)
     Any further DFT definition will be discarded
     Please, verify this is what you really want

     Message from routine setup:
     using ibrav=0 with symmetry is DISCOURAGED, use correct ibrav instead

     R & G space division:  proc/nbgrp/npool/nimage =      16
     Subspace diagonalization in iterative solution of the eigenvalue problem:
     a serial algorithm will be used


     Parallelization info
     --------------------
     sticks:   dense  smooth     PW     G-vecs:    dense   smooth      PW
     Min          92      74     21                 2656     1908     299
     Max          94      75     22                 2657     1911     302
     Sum        1481    1185    349                42499    30551    4801

     Using Slab Decomposition



     bravais-lattice index     =            0
     lattice parameter (alat)  =       5.5533  a.u.
     unit-cell volume          =     171.2590 (a.u.)^3
     number of atoms/cell      =            2
     number of atomic types    =            2
     number of electrons       =        28.00
     number of Kohn-Sham states=           18
     kinetic-energy cutoff     =     120.0000  Ry
     charge density cutoff     =     600.0000  Ry
     scf convergence threshold =      1.0E-08
     mixing beta               =       0.7000
     number of iterations used =            8  plain     mixing
     Exchange-correlation= PBE
                           (   1   4   3   4   0   0   0)

     celldm(1)=   5.553300  celldm(2)=   0.000000  celldm(3)=   0.000000
     celldm(4)=   0.000000  celldm(5)=   0.000000  celldm(6)=   0.000000

     crystal axes: (cart. coord. in units of alat)
               a(1) = (   1.000000   0.000000   0.000000 )  
               a(2) = (   0.000000   1.000000   0.000000 )  
               a(3) = (   0.000000   0.000000   1.000000 )  

     reciprocal axes: (cart. coord. in units 2 pi/alat)
               b(1) = (  1.000000  0.000000  0.000000 )  
               b(2) = (  0.000000  1.000000  0.000000 )  
               b(3) = (  0.000000  0.000000  1.000000 )  


     PseudoPot. # 1 for Fe read from file:
     ./Fe.pbe-spn-kjpaw_psl.0.2.1.UPF
     MD5 check sum: e86618425769142926afa95317d90200
     Pseudo is Projector augmented-wave + core cor, Zval = 16.0
     Generated using "atomic" code by A. Dal Corso  v.5.0.99 svn rev. 10869
     Shape of augmentation charge: PSQ
     Using radial grid of 1191 points,  6 beta functions with: 
                l(1) =   0
                l(2) =   0
                l(3) =   1
                l(4) =   1
                l(5) =   2
                l(6) =   2
     Q(r) pseudized with 0 coefficients 


     PseudoPot. # 2 for Ti read from file:
     ./Ti_pbe_v1.4.uspp.F.UPF
     MD5 check sum: 88a00a6731bd790ddea75d31a80cb452
     Pseudo is Ultrasoft + core correction, Zval = 12.0
     Generated by new atomic code, or converted to UPF format
     Using radial grid of  851 points,  6 beta functions with: 
                l(1) =   0
                l(2) =   0
                l(3) =   1
                l(4) =   1
                l(5) =   2
                l(6) =   2
     Q(r) pseudized with  6 coefficients,  rinner =    1.000   1.000   1.000
                                                       1.000   1.000

     atomic species   valence    mass     pseudopotential
     Fe               16.00    55.84500     Fe( 1.00)
     Ti               12.00    47.86700     Ti( 1.00)

     48 Sym. Ops., with inversion, found



   Cartesian axes

     site n.     atom                  positions (alat units)
         1        Fe     tau(   1) = (   0.5000000   0.5000000   0.5000000  )
         2        Ti     tau(   2) = (   0.0000000   0.0000000   0.0000000  )

     number of k points=    35  Marzari-Vanderbilt smearing, width (Ry)=  0.0050
                       cart. coord. in units 2pi/alat
        k(    1) = (   0.0000000   0.0000000   0.0000000), wk =   0.0027435
        k(    2) = (   0.0000000   0.0000000   0.1111111), wk =   0.0164609
        k(    3) = (   0.0000000   0.0000000   0.2222222), wk =   0.0164609
        k(    4) = (   0.0000000   0.0000000   0.3333333), wk =   0.0164609
        k(    5) = (   0.0000000   0.0000000   0.4444444), wk =   0.0164609
        k(    6) = (   0.0000000   0.1111111   0.1111111), wk =   0.0329218
        k(    7) = (   0.0000000   0.1111111   0.2222222), wk =   0.0658436
        k(    8) = (   0.0000000   0.1111111   0.3333333), wk =   0.0658436
        k(    9) = (   0.0000000   0.1111111   0.4444444), wk =   0.0658436
        k(   10) = (   0.0000000   0.2222222   0.2222222), wk =   0.0329218
        k(   11) = (   0.0000000   0.2222222   0.3333333), wk =   0.0658436
        k(   12) = (   0.0000000   0.2222222   0.4444444), wk =   0.0658436
        k(   13) = (   0.0000000   0.3333333   0.3333333), wk =   0.0329218
        k(   14) = (   0.0000000   0.3333333   0.4444444), wk =   0.0658436
        k(   15) = (   0.0000000   0.4444444   0.4444444), wk =   0.0329218
        k(   16) = (   0.1111111   0.1111111   0.1111111), wk =   0.0219479
        k(   17) = (   0.1111111   0.1111111   0.2222222), wk =   0.0658436
        k(   18) = (   0.1111111   0.1111111   0.3333333), wk =   0.0658436
        k(   19) = (   0.1111111   0.1111111   0.4444444), wk =   0.0658436
        k(   20) = (   0.1111111   0.2222222   0.2222222), wk =   0.0658436
        k(   21) = (   0.1111111   0.2222222   0.3333333), wk =   0.1316872
        k(   22) = (   0.1111111   0.2222222   0.4444444), wk =   0.1316872
        k(   23) = (   0.1111111   0.3333333   0.3333333), wk =   0.0658436
        k(   24) = (   0.1111111   0.3333333   0.4444444), wk =   0.1316872
        k(   25) = (   0.1111111   0.4444444   0.4444444), wk =   0.0658436
        k(   26) = (   0.2222222   0.2222222   0.2222222), wk =   0.0219479
        k(   27) = (   0.2222222   0.2222222   0.3333333), wk =   0.0658436
        k(   28) = (   0.2222222   0.2222222   0.4444444), wk =   0.0658436
        k(   29) = (   0.2222222   0.3333333   0.3333333), wk =   0.0658436
        k(   30) = (   0.2222222   0.3333333   0.4444444), wk =   0.1316872
        k(   31) = (   0.2222222   0.4444444   0.4444444), wk =   0.0658436
        k(   32) = (   0.3333333   0.3333333   0.3333333), wk =   0.0219479
        k(   33) = (   0.3333333   0.3333333   0.4444444), wk =   0.0658436
        k(   34) = (   0.3333333   0.4444444   0.4444444), wk =   0.0658436
        k(   35) = (   0.4444444   0.4444444   0.4444444), wk =   0.0219479

     Dense  grid:    42499 G-vectors     FFT dimensions: (  45,  45,  45)

     Smooth grid:    30551 G-vectors     FFT dimensions: (  40,  40,  40)

     Estimated max dynamical RAM per process >      16.15 MB

     Estimated total dynamical RAM >     258.40 MB

     Check: negative core charge=   -0.000011

     Initial potential from superposition of free atoms

     starting charge      26.9995, renormalised to      28.0000

     negative rho (up, down):  1.318E-03 0.000E+00
     Starting wfcs are   23 randomized atomic wfcs
     Checking if some PAW data can be deallocated... 

     total cpu time spent up to now is        0.9 secs

     per-process dynamical memory:   123.1 Mb

     Self-consistent Calculation

     iteration #  1     ecut=   120.00 Ry     beta= 0.70
     Davidson diagonalization with overlap
     ethr =  1.00E-02,  avg # of iterations =  2.1

     total cpu time spent up to now is        1.2 secs

     WARNING: integrated charge=    28.00083372, expected=    28.00000000

     total energy              =    -434.87968545 Ry
     estimated scf accuracy    <      17.47671500 Ry

     iteration #  2     ecut=   120.00 Ry     beta= 0.70
     Davidson diagonalization with overlap
     ethr =  1.00E-02,  avg # of iterations =  6.1

     negative rho (up, down):  9.474E-05 0.000E+00

     total cpu time spent up to now is        1.8 secs

     WARNING: integrated charge=    28.00063594, expected=    28.00000000

     total energy              =    -448.54254498 Ry
     estimated scf accuracy    <      66.00527515 Ry

     iteration #  3     ecut=   120.00 Ry     beta= 0.70
     Davidson diagonalization with overlap
     ethr =  1.00E-02,  avg # of iterations =  3.1

     negative rho (up, down):  2.067E-04 0.000E+00

     total cpu time spent up to now is        2.2 secs

     WARNING: integrated charge=    28.00050712, expected=    28.00000000

     total energy              =    -448.58568764 Ry
     estimated scf accuracy    <      16.79248532 Ry

     iteration #  4     ecut=   120.00 Ry     beta= 0.70
     Davidson diagonalization with overlap
     ethr =  1.00E-02,  avg # of iterations =  2.1

     negative rho (up, down):  2.161E-04 0.000E+00

     total cpu time spent up to now is        2.6 secs

     WARNING: integrated charge=    28.00049322, expected=    28.00000000

     total energy              =    -449.11189489 Ry
     estimated scf accuracy    <       4.66996049 Ry

     iteration #  5     ecut=   120.00 Ry     beta= 0.70
     Davidson diagonalization with overlap
     ethr =  1.00E-02,  avg # of iterations =  1.0

     negative rho (up, down):  2.285E-04 0.000E+00

     total cpu time spent up to now is        2.9 secs

     WARNING: integrated charge=    28.00046863, expected=    28.00000000

     total energy              =    -449.11503073 Ry
     estimated scf accuracy    <       4.27657279 Ry

     iteration #  6     ecut=   120.00 Ry     beta= 0.70
     Davidson diagonalization with overlap
     ethr =  1.00E-02,  avg # of iterations =  1.1

     negative rho (up, down):  1.080E-03 0.000E+00

     total cpu time spent up to now is        3.1 secs

     WARNING: integrated charge=    28.00022745, expected=    28.00000000

     total energy              =    -447.90808690 Ry
     estimated scf accuracy    <       4.47572720 Ry

     iteration #  7     ecut=   120.00 Ry     beta= 0.70
     Davidson diagonalization with overlap
     ethr =  1.00E-02,  avg # of iterations =  3.4

     negative rho (up, down):  9.547E-04 0.000E+00

     total cpu time spent up to now is        3.5 secs

     WARNING: integrated charge=    28.00020115, expected=    28.00000000

     total energy              =    -448.56077007 Ry
     estimated scf accuracy    <       3.75908141 Ry

     iteration #  8     ecut=   120.00 Ry     beta= 0.70
     Davidson diagonalization with overlap
     ethr =  1.00E-02,  avg # of iterations =  1.0

     negative rho (up, down):  7.302E-04 0.000E+00

     total cpu time spent up to now is        3.8 secs

     WARNING: integrated charge=    28.00016377, expected=    28.00000000

     total energy              =    -448.48473482 Ry
     estimated scf accuracy    <       0.96942522 Ry

     iteration #  9     ecut=   120.00 Ry     beta= 0.70
     Davidson diagonalization with overlap
     ethr =  3.46E-03,  avg # of iterations =  1.9
     Minimization algorithm failed to find Fermi energy: reverting to bisection
     Possible cause: smearing is larger than the electronic band-gap.

     negative rho (up, down):  7.385E-04 0.000E+00

     total cpu time spent up to now is        4.1 secs

     WARNING: integrated charge=    28.00015146, expected=    28.00000000

     total energy              =    -448.59803558 Ry
     estimated scf accuracy    <       0.14498157 Ry

     iteration # 10     ecut=   120.00 Ry     beta= 0.70
     Davidson diagonalization with overlap
     ethr =  5.18E-04,  avg # of iterations =  1.8

     negative rho (up, down):  8.606E-04 0.000E+00

     total cpu time spent up to now is        4.4 secs

     WARNING: integrated charge=    28.00011045, expected=    28.00000000

     total energy              =    -448.57998119 Ry
     estimated scf accuracy    <       0.16458454 Ry

     iteration # 11     ecut=   120.00 Ry     beta= 0.70
     Davidson diagonalization with overlap
     ethr =  5.18E-04,  avg # of iterations =  1.3

     negative rho (up, down):  1.069E-03 0.000E+00

     total cpu time spent up to now is        4.7 secs

     WARNING: integrated charge=    28.00008570, expected=    28.00000000

     total energy              =    -448.58200179 Ry
     estimated scf accuracy    <       0.01804911 Ry

     iteration # 12     ecut=   120.00 Ry     beta= 0.70
     Davidson diagonalization with overlap
     ethr =  6.45E-05,  avg # of iterations =  5.7

     negative rho (up, down):  8.837E-04 0.000E+00

     total cpu time spent up to now is        5.2 secs

     WARNING: integrated charge=    28.00009147, expected=    28.00000000

     total energy              =    -448.55409678 Ry
     estimated scf accuracy    <       0.24673982 Ry

     iteration # 13     ecut=   120.00 Ry     beta= 0.70
     Davidson diagonalization with overlap
     ethr =  6.45E-05,  avg # of iterations =  5.0

     negative rho (up, down):  5.645E-01 0.000E+00

     total cpu time spent up to now is        5.6 secs

     WARNING: integrated charge=    27.99965386, expected=    28.00000000

     total energy              =    -450.98733694 Ry
     estimated scf accuracy    <       0.13268154 Ry

     iteration # 14     ecut=   120.00 Ry     beta= 0.70
     Davidson diagonalization with overlap
     ethr =  6.45E-05,  avg # of iterations =  8.5

     negative rho (up, down):  9.087E-04 0.000E+00

     total cpu time spent up to now is        6.4 secs

     WARNING: integrated charge=    28.00004486, expected=    28.00000000

     total energy              =    -443.36307916 Ry
     estimated scf accuracy    <      71.44725863 Ry

     iteration # 15     ecut=   120.00 Ry     beta= 0.70
     Davidson diagonalization with overlap
     ethr =  6.45E-05,  avg # of iterations = 10.6

     negative rho (up, down):  1.038E-03 0.000E+00

     total cpu time spent up to now is        7.3 secs

     WARNING: integrated charge=    27.99999685, expected=    28.00000000

     total energy              =    -448.59213182 Ry
     estimated scf accuracy    <       0.20899534 Ry

     iteration # 16     ecut=   120.00 Ry     beta= 0.70
     Davidson diagonalization with overlap
     ethr =  6.45E-05,  avg # of iterations =  2.7

     negative rho (up, down):  1.332E-03 0.000E+00

     total cpu time spent up to now is        7.6 secs

     WARNING: integrated charge=    27.99997006, expected=    28.00000000

     total energy              =    -448.57688344 Ry
     estimated scf accuracy    <       0.06896100 Ry

     iteration # 17     ecut=   120.00 Ry     beta= 0.70
     Davidson diagonalization with overlap
     ethr =  6.45E-05,  avg # of iterations =  4.8

     negative rho (up, down):  1.168E-03 0.000E+00

     total cpu time spent up to now is        8.1 secs

     WARNING: integrated charge=    28.00000350, expected=    28.00000000

     total energy              =    -448.58441069 Ry
     estimated scf accuracy    <       0.04445167 Ry

     iteration # 18     ecut=   120.00 Ry     beta= 0.70
     Davidson diagonalization with overlap
     ethr =  6.45E-05,  avg # of iterations =  2.9

     negative rho (up, down):  1.240E-03 0.000E+00

     total cpu time spent up to now is        8.4 secs

     WARNING: integrated charge=    27.99999196, expected=    28.00000000

     total energy              =    -448.58798327 Ry
     estimated scf accuracy    <       0.00597767 Ry

     iteration # 19     ecut=   120.00 Ry     beta= 0.70
     Davidson diagonalization with overlap
     ethr =  2.13E-05,  avg # of iterations =  1.5

     negative rho (up, down):  1.264E-03 0.000E+00

     total cpu time spent up to now is        8.7 secs

     WARNING: integrated charge=    27.99999496, expected=    28.00000000

     total energy              =    -448.58873138 Ry
     estimated scf accuracy    <       0.00677657 Ry

     iteration # 20     ecut=   120.00 Ry     beta= 0.70
     Davidson diagonalization with overlap
     ethr =  2.13E-05,  avg # of iterations =  1.3

     negative rho (up, down):  1.261E-03 0.000E+00

     total cpu time spent up to now is        9.0 secs

     WARNING: integrated charge=    28.00000592, expected=    28.00000000

     total energy              =    -448.58920759 Ry
     estimated scf accuracy    <       0.00870531 Ry

     iteration # 21     ecut=   120.00 Ry     beta= 0.70
     Davidson diagonalization with overlap
     ethr =  2.13E-05,  avg # of iterations =  1.3

     negative rho (up, down):  1.063E-03 0.000E+00

     total cpu time spent up to now is        9.3 secs

     WARNING: integrated charge=    28.00000626, expected=    28.00000000

     total energy              =    -448.58576609 Ry
     estimated scf accuracy    <       0.02037912 Ry

     iteration # 22     ecut=   120.00 Ry     beta= 0.70
     Davidson diagonalization with overlap
     ethr =  2.13E-05,  avg # of iterations =  1.9

     negative rho (up, down):  1.044E-03 0.000E+00

     total cpu time spent up to now is        9.6 secs

     WARNING: integrated charge=    28.00000575, expected=    28.00000000

     total energy              =    -448.58698956 Ry
     estimated scf accuracy    <       0.00359057 Ry

     iteration # 23     ecut=   120.00 Ry     beta= 0.70
     Davidson diagonalization with overlap
     ethr =  1.28E-05,  avg # of iterations =  1.0

     negative rho (up, down):  8.667E-04 0.000E+00

     total cpu time spent up to now is        9.9 secs

     WARNING: integrated charge=    28.00000694, expected=    28.00000000

     total energy              =    -448.58513080 Ry
     estimated scf accuracy    <       0.00386032 Ry

     iteration # 24     ecut=   120.00 Ry     beta= 0.70
     Davidson diagonalization with overlap
     ethr =  1.28E-05,  avg # of iterations =  4.2

     negative rho (up, down):  9.087E-04 0.000E+00

     total cpu time spent up to now is       10.3 secs

     total energy              =    -448.58584233 Ry
     estimated scf accuracy    <       0.00671417 Ry

     iteration # 25     ecut=   120.00 Ry     beta= 0.70
     Davidson diagonalization with overlap
     ethr =  1.28E-05,  avg # of iterations =  1.9

     negative rho (up, down):  9.112E-04 0.000E+00

     total cpu time spent up to now is       10.6 secs

     total energy              =    -448.58627154 Ry
     estimated scf accuracy    <       0.00001646 Ry

     iteration # 26     ecut=   120.00 Ry     beta= 0.70
     Davidson diagonalization with overlap
     ethr =  5.88E-08,  avg # of iterations =  4.9

     negative rho (up, down):  9.105E-04 0.000E+00

     total cpu time spent up to now is       11.0 secs

     total energy              =    -448.58630380 Ry
     estimated scf accuracy    <       0.00004262 Ry

     iteration # 27     ecut=   120.00 Ry     beta= 0.70
     Davidson diagonalization with overlap
     ethr =  5.88E-08,  avg # of iterations =  1.0

     negative rho (up, down):  9.090E-04 0.000E+00

     total cpu time spent up to now is       11.3 secs

     total energy              =    -448.58630027 Ry
     estimated scf accuracy    <       0.00003164 Ry

     iteration # 28     ecut=   120.00 Ry     beta= 0.70
     Davidson diagonalization with overlap
     ethr =  5.88E-08,  avg # of iterations =  1.9

     negative rho (up, down):  9.077E-04 0.000E+00

     total cpu time spent up to now is       11.6 secs

     total energy              =    -448.58630155 Ry
     estimated scf accuracy    <       0.00000087 Ry

     iteration # 29     ecut=   120.00 Ry     beta= 0.70
     Davidson diagonalization with overlap
     ethr =  3.10E-09,  avg # of iterations =  4.3

     negative rho (up, down):  9.083E-04 0.000E+00

     total cpu time spent up to now is       12.0 secs

     total energy              =    -448.58630168 Ry
     estimated scf accuracy    <       0.00000553 Ry

     iteration # 30     ecut=   120.00 Ry     beta= 0.70
     Davidson diagonalization with overlap
     ethr =  3.10E-09,  avg # of iterations =  3.4

     negative rho (up, down):  9.086E-04 0.000E+00

     total cpu time spent up to now is       12.4 secs

     total energy              =    -448.58630188 Ry
     estimated scf accuracy    <       0.00000018 Ry

     iteration # 31     ecut=   120.00 Ry     beta= 0.70
     Davidson diagonalization with overlap
     ethr =  6.53E-10,  avg # of iterations =  3.7

     negative rho (up, down):  9.085E-04 0.000E+00

     total cpu time spent up to now is       12.7 secs

     total energy              =    -448.58630192 Ry
     estimated scf accuracy    <       0.00000012 Ry

     iteration # 32     ecut=   120.00 Ry     beta= 0.70
     Davidson diagonalization with overlap
     ethr =  4.13E-10,  avg # of iterations =  1.0

     negative rho (up, down):  9.084E-04 0.000E+00

     total cpu time spent up to now is       13.0 secs

     total energy              =    -448.58630192 Ry
     estimated scf accuracy    <       0.00000002 Ry

     iteration # 33     ecut=   120.00 Ry     beta= 0.70
     Davidson diagonalization with overlap
     ethr =  8.43E-11,  avg # of iterations =  2.7

     negative rho (up, down):  9.085E-04 0.000E+00

     total cpu time spent up to now is       13.4 secs

     End of self-consistent calculation

          k = 0.0000 0.0000 0.0000 (  3791 PWs)   bands (ev):

   -69.2039 -39.1407 -35.2654 -35.2654 -35.2654 -15.2355 -15.2355 -15.2355
    10.1531  13.8669  13.8669  16.6616  16.6616  16.6616  19.0046  19.0046
    20.9452  20.9452

          k = 0.0000 0.0000 0.1111 (  3823 PWs)   bands (ev):

   -69.2035 -39.1375 -35.2691 -35.2648 -35.2648 -15.2786 -15.2329 -15.2329
    10.4103  13.9908  13.9987  16.6431  16.6431  16.7177  18.8475  19.0622
    20.5827  20.5827

          k = 0.0000 0.0000 0.2222 (  3811 PWs)   bands (ev):

   -69.2025 -39.1296 -35.2784 -35.2634 -35.2634 -15.3867 -15.2264 -15.2264
    11.1439  14.3129  14.3487  16.6065  16.6065  16.8691  18.4025  19.1659
    19.8176  19.8176

          k = 0.0000 0.0000 0.3333 (  3812 PWs)   bands (ev):

   -69.2013 -39.1206 -35.2889 -35.2617 -35.2617 -15.5077 -15.2190 -15.2190
    12.2346  14.5614  14.8885  16.5886  16.5886  17.0616  17.7587  19.0701
    19.0902  19.0902

          k = 0.0000 0.0000 0.4444 (  3804 PWs)   bands (ev):

   -69.2005 -39.1147 -35.2957 -35.2607 -35.2607 -15.5856 -15.2141 -15.2141
    13.4365  14.3575  15.4424  16.5971  16.5971  17.1343  17.2030  18.6547
    18.6547  18.6888

          k = 0.0000 0.1111 0.1111 (  3819 PWs)   bands (ev):

   -69.2031 -39.1341 -35.2705 -35.2670 -35.2643 -15.2799 -15.2710 -15.2302
    10.6597  14.1027  14.1345  16.5213  16.6077  16.8506  18.8366  19.0206
    20.2149  20.2232

          k = 0.0000 0.1111 0.2222 (  3811 PWs)   bands (ev):

   -69.2021 -39.1255 -35.2792 -35.2673 -35.2628 -15.3824 -15.2670 -15.2232
    11.3674  14.3909  14.4888  16.4128  16.5287  16.9762  18.5222  19.1067
    19.5192  19.6221

          k = 0.0000 0.1111 0.3333 (  3804 PWs)   bands (ev):

   -69.2009 -39.1156 -35.2900 -35.2667 -35.2612 -15.5015 -15.2581 -15.2153
    12.4073  14.6304  14.9694  16.3814  16.4517  16.9785  18.0220  18.7291
    19.1999  19.2933

          k = 0.0000 0.1111 0.4444 (  3809 PWs)   bands (ev):

   -69.2001 -39.1092 -35.2971 -35.2662 -35.2602 -15.5783 -15.2522 -15.2101
    13.5285  14.4161  15.4511  16.3729  16.4281  16.8601  17.6153  18.3323
    19.0626  19.1224

          k = 0.0000 0.2222 0.2222 (  3792 PWs)   bands (ev):

   -69.2011 -39.1150 -35.2833 -35.2752 -35.2615 -15.3804 -15.3599 -15.2151
    11.9853  14.5178  14.9059  16.1680  16.3907  16.9254  18.6822  18.9281
    19.0776  19.4450

          k = 0.0000 0.2222 0.3333 (  3805 PWs)   bands (ev):

   -69.1999 -39.1031 -35.2931 -35.2790 -35.2600 -15.4860 -15.3561 -15.2059
    12.8344  14.5596  15.4149  16.0316  16.3567  16.6323  18.4525  18.5681
    19.2727  19.5515

          k = 0.0000 0.2222 0.4444 (  3802 PWs)   bands (ev):

   -69.1991 -39.0954 -35.3006 -35.2803 -35.2590 -15.5597 -15.3478 -15.1999
    13.6335  14.3474  15.7687  16.0521  16.3091  16.5256  18.1622  18.3867
    19.4421  19.7737

          k = 0.0000 0.3333 0.3333 (  3790 PWs)   bands (ev):

   -69.1987 -39.0889 -35.2979 -35.2916 -35.2585 -15.4749 -15.4593 -15.1953
    13.2773  14.3425  15.7744  16.0819  16.1901  16.5976  18.4986  18.9572
    19.1305  20.0108

          k = 0.0000 0.3333 0.4444 (  3793 PWs)   bands (ev):

   -69.1980 -39.0795 -35.3046 -35.2963 -35.2576 -15.5384 -15.4551 -15.1883
    13.5433  14.1322  15.7015  15.8513  16.5380  17.2530  18.2579  19.0237
    19.3900  20.4028

          k = 0.0000 0.4444 0.4444 (  3794 PWs)   bands (ev):

   -69.1972 -39.0691 -35.3075 -35.3065 -35.2567 -15.5256 -15.5232 -15.1807
    13.4111  13.9880  15.5240  15.5747  17.4121  17.8951  18.6536  18.8993
    19.4002  20.7935

          k = 0.1111 0.1111 0.1111 (  3821 PWs)   bands (ev):

   -69.2027 -39.1305 -35.2699 -35.2699 -35.2654 -15.2798 -15.2684 -15.2684
    10.9030  14.2398  14.2398  16.4826  16.4826  16.9330  18.9193  18.9193
    19.6875  20.5512

          k = 0.1111 0.1111 0.2222 (  3802 PWs)   bands (ev):

   -69.2017 -39.1212 -35.2796 -35.2684 -35.2658 -15.3781 -15.2656 -15.2617
    11.5902  14.5391  14.5602  16.3347  16.3839  16.9341  18.6338  19.0555
    19.2936  19.7872

          k = 0.1111 0.1111 0.3333 (  3801 PWs)   bands (ev):

   -69.2005 -39.1108 -35.2909 -35.2667 -35.2659 -15.4956 -15.2548 -15.2540
    12.5889  14.7778  14.9749  16.2512  16.3096  16.7824  18.2365  18.8269
    19.0886  19.4698

          k = 0.1111 0.1111 0.4444 (  3801 PWs)   bands (ev):

   -69.1997 -39.1039 -35.2982 -35.2659 -35.2655 -15.5715 -15.2490 -15.2477
    13.6448  14.5220  15.4013  16.0884  16.4643  16.6558  17.9100  18.4427
    18.6929  19.7760

          k = 0.1111 0.2222 0.2222 (  3789 PWs)   bands (ev):

   -69.2007 -39.1105 -35.2826 -35.2760 -35.2660 -15.3750 -15.3572 -15.2549
    12.2045  14.6854  14.9561  16.1098  16.2318  16.6657  18.7809  19.0555
    19.1792  19.5657

          k = 0.1111 0.2222 0.3333 (  3801 PWs)   bands (ev):

   -69.1995 -39.0983 -35.2931 -35.2789 -35.2652 -15.4809 -15.3524 -15.2450
    13.0403  14.7477  15.3798  15.9601  16.1843  16.3784  18.6605  18.7093
    19.1640  19.8259

          k = 0.1111 0.2222 0.4444 (  3812 PWs)   bands (ev):

   -69.1987 -39.0904 -35.3010 -35.2798 -35.2645 -15.5541 -15.3443 -15.2385
    13.8092  14.5243  15.5937  15.8929  16.2208  16.4969  18.2711  18.5494
    18.9341  20.4575

          k = 0.1111 0.3333 0.3333 (  3794 PWs)   bands (ev):

   -69.1984 -39.0842 -35.2972 -35.2917 -35.2639 -15.4699 -15.4565 -15.2343
    13.4985  14.5254  15.7245  16.0003  16.0456  16.3676  18.5348  19.0229
    19.1246  20.3731

          k = 0.1111 0.3333 0.4444 (  3801 PWs)   bands (ev):

   -69.1976 -39.0749 -35.3043 -35.2957 -35.2630 -15.5344 -15.4519 -15.2273
    13.7460  14.3196  15.6447  15.7441  16.4460  17.0251  18.2491  18.9234
    19.2086  20.7259

          k = 0.1111 0.4444 0.4444 (  3792 PWs)   bands (ev):

   -69.1969 -39.0648 -35.3067 -35.3059 -35.2621 -15.5225 -15.5204 -15.2199
    13.6146  14.1773  15.4906  15.5316  17.3098  17.6415  18.3854  18.4779
    19.5192  20.9968

          k = 0.2222 0.2222 0.2222 (  3812 PWs)   bands (ev):

   -69.1996 -39.0992 -35.2810 -35.2810 -35.2746 -15.3658 -15.3501 -15.3501
    12.8010  15.0892  15.0892  15.9658  15.9658  16.1368  18.9759  18.9759
    19.7335  19.8018

          k = 0.2222 0.2222 0.3333 (  3806 PWs)   bands (ev):

   -69.1985 -39.0862 -35.2934 -35.2791 -35.2776 -15.4680 -15.3440 -15.3421
    13.5723  15.2107  15.2563  15.8008  15.8792  15.9765  18.8096  18.8385
    19.2746  20.2074

          k = 0.2222 0.2222 0.4444 (  3794 PWs)   bands (ev):

   -69.1977 -39.0777 -35.3022 -35.2789 -35.2779 -15.5402 -15.3368 -15.3337
    14.1886  14.8274  15.3913  15.6745  16.0218  16.3838  18.3152  18.6276
    19.0637  20.5596

          k = 0.2222 0.3333 0.3333 (  3798 PWs)   bands (ev):

   -69.1974 -39.0723 -35.2954 -35.2921 -35.2775 -15.4573 -15.4493 -15.3322
    14.1082  14.9634  15.6087  15.6570  15.8761  15.9302  18.5789  18.7299
    19.5875  20.3143

          k = 0.2222 0.3333 0.4444 (  3802 PWs)   bands (ev):

   -69.1966 -39.0632 -35.3036 -35.2942 -35.2767 -15.5243 -15.4438 -15.3249
    14.2953  14.7587  15.5186  15.5652  16.1328  16.5577  18.2058  18.5105
    19.6340  20.6969

          k = 0.2222 0.4444 0.4444 (  3794 PWs)   bands (ev):

   -69.1959 -39.0537 -35.3048 -35.3043 -35.2757 -15.5145 -15.5132 -15.3182
    14.1816  14.6484  15.4207  15.4504  16.8823  16.9029  18.0405  18.2421
    19.9147  21.0514

          k = 0.3333 0.3333 0.3333 (  3782 PWs)   bands (ev):

   -69.1962 -39.0588 -35.2933 -35.2933 -35.2920 -15.4436 -15.4411 -15.4411
    14.8411  15.1326  15.5032  15.5032  15.7489  15.7489  18.4424  18.4424
    20.2357  20.2357

          k = 0.3333 0.3333 0.4444 (  3791 PWs)   bands (ev):

   -69.1955 -39.0499 -35.3030 -35.2927 -35.2920 -15.5127 -15.4357 -15.4333
    14.8625  15.0704  15.4791  15.5727  15.7995  16.2224  18.0782  18.2968
    20.2290  20.7870

          k = 0.3333 0.4444 0.4444 (  3789 PWs)   bands (ev):

   -69.1947 -39.0412 -35.3026 -35.3025 -35.2911 -15.5053 -15.5051 -15.4284
    14.9325  15.1372  15.3878  15.4791  16.1955  16.2711  17.9125  18.1057
    20.5430  21.0947

          k = 0.4444 0.4444 0.4444 (  3819 PWs)   bands (ev):

   -69.1940 -39.0329 -35.3013 -35.3012 -35.3012 -15.4998 -15.4998 -15.4992
    15.2788  15.4658  15.4658  15.7972  15.7972  15.8052  17.8842  17.8842
    21.1210  21.1210

     the Fermi energy is    17.6494 ev

!    total energy              =    -448.58630193 Ry
     estimated scf accuracy    <          1.2E-09 Ry
     smearing contrib. (-TS)   =      -0.00008106 Ry
     internal energy E=F+TS    =    -448.58622087 Ry

     The total energy is F=E-TS. E is the sum of the following terms:
     one-electron contribution =    -151.35355608 Ry
     hartree contribution      =      91.63067073 Ry
     xc contribution           =     -52.88892818 Ry
     ewald contribution        =    -259.82070277 Ry
     one-center paw contrib.   =     -76.15370456 Ry

     convergence has been achieved in  33 iterations

     negative rho (up, down):  9.085E-04 0.000E+00

     Forces acting on atoms (cartesian axes, Ry/au):

     atom    1 type  1   force =     0.00000000    0.00000000    0.00000000
     atom    2 type  2   force =     0.00000000    0.00000000    0.00000000

     Total force =     0.000000     Total SCF correction =     0.000000


     Computing stress (Cartesian axis) and pressure


     negative rho (up, down):  9.085E-04 0.000E+00
          total   stress  (Ry/bohr**3)                   (kbar)     P=       30.02
   0.00020408   0.00000000   0.00000000           30.02        0.00        0.00
   0.00000000   0.00020408   0.00000000            0.00       30.02        0.00
   0.00000000   0.00000000   0.00020408            0.00        0.00       30.02


     Writing all to output data dir ./TiFe.save/ :
     XML data file, charge density, pseudopotentials, collected wavefunctions

     init_run     :      0.61s CPU      0.64s WALL (       1 calls)
     electrons    :     12.15s CPU     12.55s WALL (       1 calls)
     forces       :      0.04s CPU      0.04s WALL (       1 calls)
     stress       :      0.19s CPU      0.19s WALL (       1 calls)

     Called by init_run:
     wfcinit      :      0.12s CPU      0.13s WALL (       1 calls)
     potinit      :      0.32s CPU      0.32s WALL (       1 calls)
     hinit0       :      0.14s CPU      0.15s WALL (       1 calls)

     Called by electrons:
     c_bands      :      8.72s CPU      8.99s WALL (      33 calls)
     sum_band     :      1.71s CPU      1.76s WALL (      33 calls)
     v_of_rho     :      0.08s CPU      0.09s WALL (      34 calls)
     newd         :      0.44s CPU      0.44s WALL (      34 calls)
     PAW_pot      :      1.18s CPU      1.22s WALL (      34 calls)
     mix_rho      :      0.03s CPU      0.03s WALL (      33 calls)

     Called by c_bands:
     init_us_2    :      0.15s CPU      0.15s WALL (    2415 calls)
     cegterg      :      8.41s CPU      8.66s WALL (    1155 calls)

     Called by *egterg:
     cdiaghg      :      1.40s CPU      1.44s WALL (    4692 calls)
     h_psi        :      5.97s CPU      6.17s WALL (    4727 calls)
     s_psi        :      0.13s CPU      0.13s WALL (    4727 calls)
     g_psi        :      0.03s CPU      0.03s WALL (    3537 calls)

     Called by h_psi:
     h_psi:calbec :      0.32s CPU      0.33s WALL (    4727 calls)
     vloc_psi     :      5.49s CPU      5.67s WALL (    4727 calls)
     add_vuspsi   :      0.13s CPU      0.13s WALL (    4727 calls)

     General routines
     calbec       :      0.44s CPU      0.45s WALL (    6477 calls)
     fft          :      0.16s CPU      0.17s WALL (     465 calls)
     ffts         :      0.28s CPU      0.28s WALL (      67 calls)
     fftw         :      5.90s CPU      6.10s WALL (  135108 calls)
     interpolate  :      0.28s CPU      0.28s WALL (      34 calls)

     Parallel routines

     PWSCF        :     13.24s CPU     14.99s WALL


   This run was terminated on:  10:39:58  28Oct2025            

=------------------------------------------------------------------------------=
   JOB DONE.
=------------------------------------------------------------------------------=
Note: The following floating-point exceptions are signalling: IEEE_UNDERFLOW_FLAG IEEE_DENORMAL
Note: The following floating-point exceptions are signalling: IEEE_UNDERFLOW_FLAG IEEE_DENORMAL
Note: The following floating-point exceptions are signalling: IEEE_UNDERFLOW_FLAG IEEE_DENORMAL
Note: The following floating-point exceptions are signalling: IEEE_UNDERFLOW_FLAG IEEE_DENORMAL
Note: The following floating-point exceptions are signalling: IEEE_UNDERFLOW_FLAG IEEE_DENORMAL
Note: The following floating-point exceptions are signalling: IEEE_UNDERFLOW_FLAG IEEE_DENORMAL
Note: The following floating-point exceptions are signalling: IEEE_UNDERFLOW_FLAG IEEE_DENORMAL
Note: The following floating-point exceptions are signalling: IEEE_UNDERFLOW_FLAG IEEE_DENORMAL
Note: The following floating-point exceptions are signalling: IEEE_UNDERFLOW_FLAG IEEE_DENORMAL
Note: The following floating-point exceptions are signalling: IEEE_UNDERFLOW_FLAG IEEE_DENORMAL
Note: The following floating-point exceptions are signalling: IEEE_UNDERFLOW_FLAG IEEE_DENORMAL
Note: The following floating-point exceptions are signalling: IEEE_UNDERFLOW_FLAG IEEE_DENORMAL
Note: The following floating-point exceptions are signalling: IEEE_UNDERFLOW_FLAG IEEE_DENORMAL
Note: The following floating-point exceptions are signalling: IEEE_UNDERFLOW_FLAG IEEE_DENORMAL
Note: The following floating-point exceptions are signalling: IEEE_UNDERFLOW_FLAG IEEE_DENORMAL
Note: The following floating-point exceptions are signalling: IEEE_UNDERFLOW_FLAG IEEE_DENORMAL
