
     Program PWSCF v.7.4 starts on 28Oct2025 at 10:39:21 

     This program is part of the open-source Quantum ESPRESSO suite
     for quantum simulation of materials; please cite
         "P. Giannozzi et al., J. Phys.:Condens. Matter 21 395502 (2009);
         "P. Giannozzi et al., J. Phys.:Condens. Matter 29 465901 (2017);
         "P. Giannozzi et al., J. Chem. Phys. 152 154105 (2020);
          URL http://www.quantum-espresso.org", 
     in publications or presentations arising from this work. More details at
     http://www.quantum-espresso.org/quote

     Parallel version (MPI & OpenMP), running on      16 processor cores
     Number of MPI processes:                16
     Threads/MPI process:                     1

     MPI processes distributed on     1 nodes
     230637 MiB available memory on the printing compute node when the environment starts

     Reading input from TiFe_ecutwfc_convergence/TiFe2_ecut80.in

     Current dimensions of program PWSCF are:
     Max number of different atomic species (ntypx) = 10
     Max number of k-points (npk) =  40000
     Max angular momentum in pseudopotentials (lmaxx) =  4
     file Fe.pbe-spn-kjpaw_psl.0.2.1.UPF: wavefunction(s)  3D renormalized

     IMPORTANT: XC functional enforced from input :
     Exchange-correlation= PBE
                           (   1   4   3   4   0   0   0)
     Any further DFT definition will be discarded
     Please, verify this is what you really want

     Message from routine setup:
     using ibrav=0 with symmetry is DISCOURAGED, use correct ibrav instead

     R & G space division:  proc/nbgrp/npool/nimage =      16
     Subspace diagonalization in iterative solution of the eigenvalue problem:
     a serial algorithm will be used


     Parallelization info
     --------------------
     sticks:   dense  smooth     PW     G-vecs:    dense   smooth      PW
     Min          60      48     14                 1436     1030     172
     Max          61      49     16                 1441     1035     175
     Sum         973     777    241                23031    16519    2777

     Using Slab Decomposition



     bravais-lattice index     =            0
     lattice parameter (alat)  =       5.5533  a.u.
     unit-cell volume          =     171.2590 (a.u.)^3
     number of atoms/cell      =            2
     number of atomic types    =            2
     number of electrons       =        28.00
     number of Kohn-Sham states=           18
     kinetic-energy cutoff     =      80.0000  Ry
     charge density cutoff     =     400.0000  Ry
     scf convergence threshold =      1.0E-08
     mixing beta               =       0.7000
     number of iterations used =            8  plain     mixing
     Exchange-correlation= PBE
                           (   1   4   3   4   0   0   0)

     celldm(1)=   5.553300  celldm(2)=   0.000000  celldm(3)=   0.000000
     celldm(4)=   0.000000  celldm(5)=   0.000000  celldm(6)=   0.000000

     crystal axes: (cart. coord. in units of alat)
               a(1) = (   1.000000   0.000000   0.000000 )  
               a(2) = (   0.000000   1.000000   0.000000 )  
               a(3) = (   0.000000   0.000000   1.000000 )  

     reciprocal axes: (cart. coord. in units 2 pi/alat)
               b(1) = (  1.000000  0.000000  0.000000 )  
               b(2) = (  0.000000  1.000000  0.000000 )  
               b(3) = (  0.000000  0.000000  1.000000 )  


     PseudoPot. # 1 for Fe read from file:
     ./Fe.pbe-spn-kjpaw_psl.0.2.1.UPF
     MD5 check sum: e86618425769142926afa95317d90200
     Pseudo is Projector augmented-wave + core cor, Zval = 16.0
     Generated using "atomic" code by A. Dal Corso  v.5.0.99 svn rev. 10869
     Shape of augmentation charge: PSQ
     Using radial grid of 1191 points,  6 beta functions with: 
                l(1) =   0
                l(2) =   0
                l(3) =   1
                l(4) =   1
                l(5) =   2
                l(6) =   2
     Q(r) pseudized with 0 coefficients 


     PseudoPot. # 2 for Ti read from file:
     ./Ti_pbe_v1.4.uspp.F.UPF
     MD5 check sum: 88a00a6731bd790ddea75d31a80cb452
     Pseudo is Ultrasoft + core correction, Zval = 12.0
     Generated by new atomic code, or converted to UPF format
     Using radial grid of  851 points,  6 beta functions with: 
                l(1) =   0
                l(2) =   0
                l(3) =   1
                l(4) =   1
                l(5) =   2
                l(6) =   2
     Q(r) pseudized with  6 coefficients,  rinner =    1.000   1.000   1.000
                                                       1.000   1.000

     atomic species   valence    mass     pseudopotential
     Fe               16.00    55.84500     Fe( 1.00)
     Ti               12.00    47.86700     Ti( 1.00)

     48 Sym. Ops., with inversion, found



   Cartesian axes

     site n.     atom                  positions (alat units)
         1        Fe     tau(   1) = (   0.5000000   0.5000000   0.5000000  )
         2        Ti     tau(   2) = (   0.0000000   0.0000000   0.0000000  )

     number of k points=    35  Marzari-Vanderbilt smearing, width (Ry)=  0.0050
                       cart. coord. in units 2pi/alat
        k(    1) = (   0.0000000   0.0000000   0.0000000), wk =   0.0027435
        k(    2) = (   0.0000000   0.0000000   0.1111111), wk =   0.0164609
        k(    3) = (   0.0000000   0.0000000   0.2222222), wk =   0.0164609
        k(    4) = (   0.0000000   0.0000000   0.3333333), wk =   0.0164609
        k(    5) = (   0.0000000   0.0000000   0.4444444), wk =   0.0164609
        k(    6) = (   0.0000000   0.1111111   0.1111111), wk =   0.0329218
        k(    7) = (   0.0000000   0.1111111   0.2222222), wk =   0.0658436
        k(    8) = (   0.0000000   0.1111111   0.3333333), wk =   0.0658436
        k(    9) = (   0.0000000   0.1111111   0.4444444), wk =   0.0658436
        k(   10) = (   0.0000000   0.2222222   0.2222222), wk =   0.0329218
        k(   11) = (   0.0000000   0.2222222   0.3333333), wk =   0.0658436
        k(   12) = (   0.0000000   0.2222222   0.4444444), wk =   0.0658436
        k(   13) = (   0.0000000   0.3333333   0.3333333), wk =   0.0329218
        k(   14) = (   0.0000000   0.3333333   0.4444444), wk =   0.0658436
        k(   15) = (   0.0000000   0.4444444   0.4444444), wk =   0.0329218
        k(   16) = (   0.1111111   0.1111111   0.1111111), wk =   0.0219479
        k(   17) = (   0.1111111   0.1111111   0.2222222), wk =   0.0658436
        k(   18) = (   0.1111111   0.1111111   0.3333333), wk =   0.0658436
        k(   19) = (   0.1111111   0.1111111   0.4444444), wk =   0.0658436
        k(   20) = (   0.1111111   0.2222222   0.2222222), wk =   0.0658436
        k(   21) = (   0.1111111   0.2222222   0.3333333), wk =   0.1316872
        k(   22) = (   0.1111111   0.2222222   0.4444444), wk =   0.1316872
        k(   23) = (   0.1111111   0.3333333   0.3333333), wk =   0.0658436
        k(   24) = (   0.1111111   0.3333333   0.4444444), wk =   0.1316872
        k(   25) = (   0.1111111   0.4444444   0.4444444), wk =   0.0658436
        k(   26) = (   0.2222222   0.2222222   0.2222222), wk =   0.0219479
        k(   27) = (   0.2222222   0.2222222   0.3333333), wk =   0.0658436
        k(   28) = (   0.2222222   0.2222222   0.4444444), wk =   0.0658436
        k(   29) = (   0.2222222   0.3333333   0.3333333), wk =   0.0658436
        k(   30) = (   0.2222222   0.3333333   0.4444444), wk =   0.1316872
        k(   31) = (   0.2222222   0.4444444   0.4444444), wk =   0.0658436
        k(   32) = (   0.3333333   0.3333333   0.3333333), wk =   0.0219479
        k(   33) = (   0.3333333   0.3333333   0.4444444), wk =   0.0658436
        k(   34) = (   0.3333333   0.4444444   0.4444444), wk =   0.0658436
        k(   35) = (   0.4444444   0.4444444   0.4444444), wk =   0.0219479

     Dense  grid:    23031 G-vectors     FFT dimensions: (  36,  36,  36)

     Smooth grid:    16519 G-vectors     FFT dimensions: (  32,  32,  32)

     Estimated max dynamical RAM per process >       9.88 MB

     Estimated total dynamical RAM >     158.14 MB

     Check: negative core charge=   -0.000030

     Initial potential from superposition of free atoms

     starting charge      26.9995, renormalised to      28.0000

     negative rho (up, down):  8.334E-04 0.000E+00
     Starting wfcs are   23 randomized atomic wfcs
     Checking if some PAW data can be deallocated... 

     total cpu time spent up to now is        0.8 secs

     per-process dynamical memory:   118.1 Mb

     Self-consistent Calculation

     iteration #  1     ecut=    80.00 Ry     beta= 0.70
     Davidson diagonalization with overlap
     ethr =  1.00E-02,  avg # of iterations =  2.1

     negative rho (up, down):  6.025E-04 0.000E+00

     total cpu time spent up to now is        1.0 secs

     WARNING: integrated charge=    28.00081837, expected=    28.00000000

     total energy              =    -434.89835437 Ry
     estimated scf accuracy    <      17.45513595 Ry

     iteration #  2     ecut=    80.00 Ry     beta= 0.70
     Davidson diagonalization with overlap
     ethr =  1.00E-02,  avg # of iterations =  6.1

     negative rho (up, down):  1.889E-04 0.000E+00

     total cpu time spent up to now is        1.4 secs

     WARNING: integrated charge=    28.00062424, expected=    28.00000000

     total energy              =    -448.54738546 Ry
     estimated scf accuracy    <      65.92141218 Ry

     iteration #  3     ecut=    80.00 Ry     beta= 0.70
     Davidson diagonalization with overlap
     ethr =  1.00E-02,  avg # of iterations =  3.2

     negative rho (up, down):  4.062E-04 0.000E+00

     total cpu time spent up to now is        1.7 secs

     WARNING: integrated charge=    28.00049792, expected=    28.00000000

     total energy              =    -448.58867031 Ry
     estimated scf accuracy    <      16.77306934 Ry

     iteration #  4     ecut=    80.00 Ry     beta= 0.70
     Davidson diagonalization with overlap
     ethr =  1.00E-02,  avg # of iterations =  2.1

     negative rho (up, down):  4.237E-04 0.000E+00

     total cpu time spent up to now is        1.9 secs

     WARNING: integrated charge=    28.00080000, expected=    28.00000000

     total energy              =    -449.10611646 Ry
     estimated scf accuracy    <       4.68818277 Ry

     iteration #  5     ecut=    80.00 Ry     beta= 0.70
     Davidson diagonalization with overlap
     ethr =  1.00E-02,  avg # of iterations =  1.0

     negative rho (up, down):  4.418E-04 0.000E+00

     total cpu time spent up to now is        2.1 secs

     WARNING: integrated charge=    27.99744584, expected=    28.00000000

     total energy              =    -449.12252511 Ry
     estimated scf accuracy    <       4.29698739 Ry

     iteration #  6     ecut=    80.00 Ry     beta= 0.70
     Davidson diagonalization with overlap
     ethr =  1.00E-02,  avg # of iterations =  1.0

     negative rho (up, down):  7.449E-04 0.000E+00

     total cpu time spent up to now is        2.3 secs

     WARNING: integrated charge=    27.98562733, expected=    28.00000000

     total energy              =    -447.90992631 Ry
     estimated scf accuracy    <       4.46484026 Ry

     iteration #  7     ecut=    80.00 Ry     beta= 0.70
     Davidson diagonalization with overlap
     ethr =  1.00E-02,  avg # of iterations =  3.4

     negative rho (up, down):  6.967E-04 0.000E+00

     total cpu time spent up to now is        2.5 secs

     WARNING: integrated charge=    27.98612282, expected=    28.00000000

     total energy              =    -448.49400565 Ry
     estimated scf accuracy    <       3.65243645 Ry

     iteration #  8     ecut=    80.00 Ry     beta= 0.70
     Davidson diagonalization with overlap
     ethr =  1.00E-02,  avg # of iterations =  1.0

     negative rho (up, down):  6.419E-04 0.000E+00

     total cpu time spent up to now is        2.7 secs

     WARNING: integrated charge=    27.98693596, expected=    28.00000000

     total energy              =    -448.52818924 Ry
     estimated scf accuracy    <       0.43897960 Ry

     iteration #  9     ecut=    80.00 Ry     beta= 0.70
     Davidson diagonalization with overlap
     ethr =  1.57E-03,  avg # of iterations =  2.5

     negative rho (up, down):  6.488E-04 0.000E+00

     total cpu time spent up to now is        2.9 secs

     WARNING: integrated charge=    27.98674320, expected=    28.00000000

     total energy              =    -448.59109999 Ry
     estimated scf accuracy    <       0.13841448 Ry

     iteration # 10     ecut=    80.00 Ry     beta= 0.70
     Davidson diagonalization with overlap
     ethr =  4.94E-04,  avg # of iterations =  1.2

     negative rho (up, down):  6.962E-04 0.000E+00

     total cpu time spent up to now is        3.1 secs

     WARNING: integrated charge=    27.98553220, expected=    28.00000000

     total energy              =    -448.57721107 Ry
     estimated scf accuracy    <       0.07233615 Ry

     iteration # 11     ecut=    80.00 Ry     beta= 0.70
     Davidson diagonalization with overlap
     ethr =  2.58E-04,  avg # of iterations =  2.9

     negative rho (up, down):  1.044E-03 0.000E+00

     total cpu time spent up to now is        3.3 secs

     WARNING: integrated charge=    27.98858956, expected=    28.00000000

     total energy              =    -448.61775676 Ry
     estimated scf accuracy    <       0.01336512 Ry

     iteration # 12     ecut=    80.00 Ry     beta= 0.70
     Davidson diagonalization with overlap
     ethr =  4.77E-05,  avg # of iterations =  7.3

     negative rho (up, down):  7.148E-04 0.000E+00

     total cpu time spent up to now is        3.7 secs

     WARNING: integrated charge=    27.98719136, expected=    28.00000000

     total energy              =    -448.27280392 Ry
     estimated scf accuracy    <       6.72034538 Ry

     iteration # 13     ecut=    80.00 Ry     beta= 0.70
     Davidson diagonalization with overlap
     ethr =  4.77E-05,  avg # of iterations =  6.2

     negative rho (up, down):  2.563E-03 0.000E+00

     total cpu time spent up to now is        4.0 secs

     WARNING: integrated charge=    27.99876424, expected=    28.00000000

     total energy              =    -448.76908360 Ry
     estimated scf accuracy    <       0.01389931 Ry

     iteration # 14     ecut=    80.00 Ry     beta= 0.70
     Davidson diagonalization with overlap
     ethr =  4.77E-05,  avg # of iterations =  7.9

     negative rho (up, down):  6.973E-04 0.000E+00

     total cpu time spent up to now is        4.5 secs

     WARNING: integrated charge=    27.99819271, expected=    28.00000000

     total energy              =    -446.84714633 Ry
     estimated scf accuracy    <      30.87990337 Ry

     iteration # 15     ecut=    80.00 Ry     beta= 0.70
     Davidson diagonalization with overlap
     ethr =  4.77E-05,  avg # of iterations =  8.5

     negative rho (up, down):  7.282E-04 0.000E+00

     total cpu time spent up to now is        5.0 secs

     WARNING: integrated charge=    27.99909454, expected=    28.00000000

     total energy              =    -448.58101800 Ry
     estimated scf accuracy    <       0.09946031 Ry

     iteration # 16     ecut=    80.00 Ry     beta= 0.70
     Davidson diagonalization with overlap
     ethr =  4.77E-05,  avg # of iterations =  3.1

     negative rho (up, down):  7.189E-04 0.000E+00

     total cpu time spent up to now is        5.2 secs

     WARNING: integrated charge=    28.00017455, expected=    28.00000000

     total energy              =    -448.58507156 Ry
     estimated scf accuracy    <       0.00486887 Ry

     iteration # 17     ecut=    80.00 Ry     beta= 0.70
     Davidson diagonalization with overlap
     ethr =  1.74E-05,  avg # of iterations =  1.3

     negative rho (up, down):  7.133E-04 0.000E+00

     total cpu time spent up to now is        5.4 secs

     WARNING: integrated charge=    28.00012562, expected=    28.00000000

     total energy              =    -448.58510048 Ry
     estimated scf accuracy    <       0.00973535 Ry

     iteration # 18     ecut=    80.00 Ry     beta= 0.70
     Davidson diagonalization with overlap
     ethr =  1.74E-05,  avg # of iterations =  1.0

     negative rho (up, down):  6.913E-04 0.000E+00

     total cpu time spent up to now is        5.5 secs

     WARNING: integrated charge=    28.00003189, expected=    28.00000000

     total energy              =    -448.58556340 Ry
     estimated scf accuracy    <       0.00609015 Ry

     iteration # 19     ecut=    80.00 Ry     beta= 0.70
     Davidson diagonalization with overlap
     ethr =  1.74E-05,  avg # of iterations =  1.6

     negative rho (up, down):  6.804E-04 0.000E+00

     total cpu time spent up to now is        5.7 secs

     WARNING: integrated charge=    28.00013377, expected=    28.00000000

     total energy              =    -448.58551172 Ry
     estimated scf accuracy    <       0.01479185 Ry

     iteration # 20     ecut=    80.00 Ry     beta= 0.70
     Davidson diagonalization with overlap
     ethr =  1.74E-05,  avg # of iterations =  1.0

     negative rho (up, down):  6.654E-04 0.000E+00

     total cpu time spent up to now is        5.9 secs

     WARNING: integrated charge=    28.00010732, expected=    28.00000000

     total energy              =    -448.58604830 Ry
     estimated scf accuracy    <       0.00961816 Ry

     iteration # 21     ecut=    80.00 Ry     beta= 0.70
     Davidson diagonalization with overlap
     ethr =  1.74E-05,  avg # of iterations =  1.0

     negative rho (up, down):  6.658E-04 0.000E+00

     total cpu time spent up to now is        6.1 secs

     WARNING: integrated charge=    28.00000321, expected=    28.00000000

     total energy              =    -448.58596884 Ry
     estimated scf accuracy    <       0.01222405 Ry

     iteration # 22     ecut=    80.00 Ry     beta= 0.70
     Davidson diagonalization with overlap
     ethr =  1.74E-05,  avg # of iterations =  1.0

     negative rho (up, down):  6.678E-04 0.000E+00

     total cpu time spent up to now is        6.3 secs

     WARNING: integrated charge=    28.00015690, expected=    28.00000000

     total energy              =    -448.58579386 Ry
     estimated scf accuracy    <       0.01025344 Ry

     iteration # 23     ecut=    80.00 Ry     beta= 0.70
     Davidson diagonalization with overlap
     ethr =  1.74E-05,  avg # of iterations =  1.0

     negative rho (up, down):  7.007E-04 0.000E+00

     total cpu time spent up to now is        6.5 secs

     WARNING: integrated charge=    28.00009960, expected=    28.00000000

     total energy              =    -448.58372576 Ry
     estimated scf accuracy    <       0.00948857 Ry

     iteration # 24     ecut=    80.00 Ry     beta= 0.70
     Davidson diagonalization with overlap
     ethr =  1.74E-05,  avg # of iterations =  2.5

     negative rho (up, down):  6.973E-04 0.000E+00

     total cpu time spent up to now is        6.7 secs

     WARNING: integrated charge=    27.99995472, expected=    28.00000000

     total energy              =    -448.58472788 Ry
     estimated scf accuracy    <       0.00008927 Ry

     iteration # 25     ecut=    80.00 Ry     beta= 0.70
     Davidson diagonalization with overlap
     ethr =  3.19E-07,  avg # of iterations =  4.1

     negative rho (up, down):  6.950E-04 0.000E+00

     total cpu time spent up to now is        7.0 secs

     WARNING: integrated charge=    28.00000793, expected=    28.00000000

     total energy              =    -448.58477553 Ry
     estimated scf accuracy    <       0.00003804 Ry

     iteration # 26     ecut=    80.00 Ry     beta= 0.70
     Davidson diagonalization with overlap
     ethr =  1.36E-07,  avg # of iterations =  2.5

     negative rho (up, down):  6.954E-04 0.000E+00

     total cpu time spent up to now is        7.2 secs

     WARNING: integrated charge=    28.00000471, expected=    28.00000000

     total energy              =    -448.58478154 Ry
     estimated scf accuracy    <       0.00000622 Ry

     iteration # 27     ecut=    80.00 Ry     beta= 0.70
     Davidson diagonalization with overlap
     ethr =  2.22E-08,  avg # of iterations =  1.9

     negative rho (up, down):  6.955E-04 0.000E+00

     total cpu time spent up to now is        7.4 secs

     total energy              =    -448.58478211 Ry
     estimated scf accuracy    <       0.00000025 Ry

     iteration # 28     ecut=    80.00 Ry     beta= 0.70
     Davidson diagonalization with overlap
     ethr =  9.07E-10,  avg # of iterations =  4.5

     negative rho (up, down):  6.955E-04 0.000E+00

     total cpu time spent up to now is        7.6 secs

     total energy              =    -448.58478222 Ry
     estimated scf accuracy    <       0.00000015 Ry

     iteration # 29     ecut=    80.00 Ry     beta= 0.70
     Davidson diagonalization with overlap
     ethr =  5.45E-10,  avg # of iterations =  1.4

     negative rho (up, down):  6.955E-04 0.000E+00

     total cpu time spent up to now is        7.8 secs

     End of self-consistent calculation

          k = 0.0000 0.0000 0.0000 (  2103 PWs)   bands (ev):

   -69.2032 -39.1403 -35.2639 -35.2639 -35.2639 -15.2350 -15.2350 -15.2350
    10.1544  13.8679  13.8679  16.6614  16.6614  16.6614  19.0059  19.0059
    20.9458  20.9458

          k = 0.0000 0.0000 0.1111 (  2072 PWs)   bands (ev):

   -69.2028 -39.1372 -35.2673 -35.2632 -35.2632 -15.2781 -15.2324 -15.2324
    10.4117  13.9919  13.9998  16.6429  16.6429  16.7175  18.8488  19.0636
    20.5836  20.5836

          k = 0.0000 0.0000 0.2222 (  2048 PWs)   bands (ev):

   -69.2018 -39.1293 -35.2766 -35.2615 -35.2615 -15.3862 -15.2259 -15.2259
    11.1455  14.3143  14.3498  16.6063  16.6063  16.8688  18.4037  19.1674
    19.8188  19.8188

          k = 0.0000 0.0000 0.3333 (  2056 PWs)   bands (ev):

   -69.2006 -39.1203 -35.2872 -35.2599 -35.2599 -15.5072 -15.2184 -15.2184
    12.2364  14.5631  14.8898  16.5883  16.5883  17.0612  17.7598  19.0720
    19.0915  19.0915

          k = 0.0000 0.0000 0.4444 (  2064 PWs)   bands (ev):

   -69.1998 -39.1144 -35.2942 -35.2588 -35.2588 -15.5852 -15.2136 -15.2136
    13.4383  14.3597  15.4439  16.5968  16.5968  17.1350  17.2026  18.6560
    18.6560  18.6908

          k = 0.0000 0.1111 0.1111 (  2051 PWs)   bands (ev):

   -69.2024 -39.1338 -35.2688 -35.2650 -35.2624 -15.2794 -15.2705 -15.2297
    10.6612  14.1039  14.1357  16.5211  16.6075  16.8504  18.8379  19.0220
    20.2160  20.2243

          k = 0.0000 0.1111 0.2222 (  2056 PWs)   bands (ev):

   -69.2014 -39.1251 -35.2775 -35.2655 -35.2610 -15.3819 -15.2665 -15.2227
    11.3690  14.3921  14.4901  16.4126  16.5286  16.9758  18.5234  19.1083
    19.5203  19.6234

          k = 0.0000 0.1111 0.3333 (  2066 PWs)   bands (ev):

   -69.2002 -39.1153 -35.2884 -35.2649 -35.2595 -15.5010 -15.2576 -15.2148
    12.4091  14.6320  14.9708  16.3812  16.4518  16.9781  18.0228  18.7308
    19.2011  19.2948

          k = 0.0000 0.1111 0.4444 (  2068 PWs)   bands (ev):

   -69.1994 -39.1089 -35.2955 -35.2644 -35.2584 -15.5778 -15.2517 -15.2096
    13.5302  14.4181  15.4527  16.3732  16.4279  16.8599  17.6157  18.3340
    19.0636  19.1241

          k = 0.0000 0.2222 0.2222 (  2059 PWs)   bands (ev):

   -69.2004 -39.1147 -35.2816 -35.2734 -35.2596 -15.3799 -15.3594 -15.2146
    11.9870  14.5191  14.9074  16.1679  16.3909  16.9251  18.6833  18.9294
    19.0791  19.4462

          k = 0.0000 0.2222 0.3333 (  2064 PWs)   bands (ev):

   -69.1992 -39.1028 -35.2913 -35.2773 -35.2582 -15.4855 -15.3556 -15.2054
    12.8361  14.5609  15.4167  16.0316  16.3573  16.6321  18.4537  18.5692
    19.2743  19.5525

          k = 0.0000 0.2222 0.4444 (  2074 PWs)   bands (ev):

   -69.1984 -39.0951 -35.2990 -35.2786 -35.2572 -15.5592 -15.3473 -15.1994
    13.6350  14.3487  15.7706  16.0520  16.3090  16.5268  18.1638  18.3873
    19.4442  19.7744

          k = 0.0000 0.3333 0.3333 (  2055 PWs)   bands (ev):

   -69.1980 -39.0885 -35.2961 -35.2898 -35.2567 -15.4744 -15.4588 -15.1948
    13.2787  14.3435  15.7744  16.0840  16.1900  16.5991  18.5004  18.9577
    19.1325  20.0116

          k = 0.0000 0.3333 0.4444 (  2070 PWs)   bands (ev):

   -69.1973 -39.0792 -35.3029 -35.2947 -35.2558 -15.5380 -15.4546 -15.1878
    13.5445  14.1328  15.7015  15.8513  16.5403  17.2553  18.2599  19.0242
    19.3925  20.4033

          k = 0.0000 0.4444 0.4444 (  2082 PWs)   bands (ev):

   -69.1965 -39.0688 -35.3058 -35.3050 -35.2550 -15.5251 -15.5227 -15.1803
    13.4123  13.9883  15.5241  15.5748  17.4144  17.8975  18.6564  18.9027
    19.4007  20.7939

          k = 0.1111 0.1111 0.1111 (  2064 PWs)   bands (ev):

   -69.2020 -39.1301 -35.2682 -35.2682 -35.2635 -15.2793 -15.2679 -15.2679
    10.9044  14.2410  14.2410  16.4825  16.4825  16.9326  18.9206  18.9206
    19.6887  20.5521

          k = 0.1111 0.1111 0.2222 (  2061 PWs)   bands (ev):

   -69.2010 -39.1209 -35.2778 -35.2666 -35.2640 -15.3776 -15.2651 -15.2612
    11.5918  14.5404  14.5616  16.3346  16.3838  16.9338  18.6349  19.0571
    19.2948  19.7883

          k = 0.1111 0.1111 0.3333 (  2057 PWs)   bands (ev):

   -69.1998 -39.1104 -35.2891 -35.2648 -35.2641 -15.4952 -15.2543 -15.2535
    12.5907  14.7796  14.9763  16.2513  16.3096  16.7823  18.2373  18.8285
    19.0899  19.4712

          k = 0.1111 0.1111 0.4444 (  2064 PWs)   bands (ev):

   -69.1990 -39.1036 -35.2966 -35.2641 -35.2637 -15.5710 -15.2485 -15.2471
    13.6465  14.5239  15.4028  16.0884  16.4645  16.6559  17.9104  18.4444
    18.6944  19.7774

          k = 0.1111 0.2222 0.2222 (  2065 PWs)   bands (ev):

   -69.2000 -39.1102 -35.2810 -35.2742 -35.2643 -15.3745 -15.3567 -15.2544
    12.2062  14.6867  14.9577  16.1098  16.2319  16.6656  18.7821  19.0570
    19.1802  19.5669

          k = 0.1111 0.2222 0.3333 (  2068 PWs)   bands (ev):

   -69.1988 -39.0980 -35.2914 -35.2772 -35.2634 -15.4804 -15.3519 -15.2445
    13.0420  14.7490  15.3815  15.9601  16.1848  16.3785  18.6619  18.7104
    19.1655  19.8269

          k = 0.1111 0.2222 0.4444 (  2075 PWs)   bands (ev):

   -69.1980 -39.0901 -35.2995 -35.2781 -35.2627 -15.5537 -15.3438 -15.2380
    13.8107  14.5255  15.5954  15.8929  16.2210  16.4982  18.2728  18.5499
    18.9357  20.4587

          k = 0.1111 0.3333 0.3333 (  2079 PWs)   bands (ev):

   -69.1976 -39.0839 -35.2956 -35.2902 -35.2622 -15.4695 -15.4560 -15.2338
    13.4999  14.5263  15.7246  16.0004  16.0476  16.3689  18.5365  19.0249
    19.1251  20.3739

          k = 0.1111 0.3333 0.4444 (  2072 PWs)   bands (ev):

   -69.1969 -39.0746 -35.3027 -35.2941 -35.2612 -15.5339 -15.4514 -15.2268
    13.7474  14.3202  15.6448  15.7443  16.4480  17.0274  18.2510  18.9254
    19.2091  20.7265

          k = 0.1111 0.4444 0.4444 (  2065 PWs)   bands (ev):

   -69.1961 -39.0645 -35.3050 -35.3042 -35.2603 -15.5220 -15.5199 -15.2194
    13.6160  14.1776  15.4907  15.5316  17.3123  17.6442  18.3875  18.4807
    19.5196  20.9976

          k = 0.2222 0.2222 0.2222 (  2070 PWs)   bands (ev):

   -69.1989 -39.0988 -35.2793 -35.2793 -35.2729 -15.3653 -15.3496 -15.3496
    12.8028  15.0907  15.0907  15.9658  15.9658  16.1369  18.9774  18.9774
    19.7344  19.8026

          k = 0.2222 0.2222 0.3333 (  2070 PWs)   bands (ev):

   -69.1978 -39.0859 -35.2917 -35.2774 -35.2759 -15.4675 -15.3435 -15.3416
    13.5741  15.2119  15.2579  15.8010  15.8795  15.9771  18.8113  18.8404
    19.2752  20.2081

          k = 0.2222 0.2222 0.4444 (  2070 PWs)   bands (ev):

   -69.1970 -39.0774 -35.3006 -35.2771 -35.2761 -15.5397 -15.3363 -15.3332
    14.1902  14.8283  15.3930  15.6746  16.0219  16.3856  18.3171  18.6293
    19.0641  20.5602

          k = 0.2222 0.3333 0.3333 (  2081 PWs)   bands (ev):

   -69.1967 -39.0720 -35.2937 -35.2905 -35.2758 -15.4568 -15.4488 -15.3317
    14.1099  14.9641  15.6089  15.6577  15.8769  15.9320  18.5808  18.7318
    19.5880  20.3149

          k = 0.2222 0.3333 0.4444 (  2078 PWs)   bands (ev):

   -69.1959 -39.0629 -35.3020 -35.2926 -35.2750 -15.5238 -15.4433 -15.3244
    14.2967  14.7591  15.5193  15.5655  16.1342  16.5600  18.2078  18.5124
    19.6345  20.6976

          k = 0.2222 0.4444 0.4444 (  2070 PWs)   bands (ev):

   -69.1952 -39.0534 -35.3031 -35.3026 -35.2739 -15.5140 -15.5127 -15.3177
    14.1831  14.6486  15.4209  15.4506  16.8846  16.9052  18.0426  18.2440
    19.9152  21.0523

          k = 0.3333 0.3333 0.3333 (  2088 PWs)   bands (ev):

   -69.1955 -39.0584 -35.2917 -35.2917 -35.2905 -15.4431 -15.4406 -15.4406
    14.8429  15.1327  15.5037  15.5037  15.7505  15.7505  18.4444  18.4444
    20.2363  20.2363

          k = 0.3333 0.3333 0.4444 (  2067 PWs)   bands (ev):

   -69.1948 -39.0496 -35.3012 -35.2911 -35.2902 -15.5122 -15.4352 -15.4328
    14.8638  15.0705  15.4801  15.5737  15.8001  16.2248  18.0802  18.2988
    20.2297  20.7878

          k = 0.3333 0.4444 0.4444 (  2077 PWs)   bands (ev):

   -69.1940 -39.0409 -35.3009 -35.3007 -35.2895 -15.5049 -15.5046 -15.4280
    14.9340  15.1374  15.3881  15.4796  16.1976  16.2731  17.9146  18.1077
    20.5437  21.0956

          k = 0.4444 0.4444 0.4444 (  2080 PWs)   bands (ev):

   -69.1933 -39.0326 -35.2997 -35.2994 -35.2994 -15.4993 -15.4993 -15.4987
    15.2793  15.4662  15.4662  15.7992  15.7992  15.8068  17.8862  17.8862
    21.1220  21.1220

     the Fermi energy is    17.6509 ev

!    total energy              =    -448.58478223 Ry
     estimated scf accuracy    <          2.8E-09 Ry
     smearing contrib. (-TS)   =      -0.00007952 Ry
     internal energy E=F+TS    =    -448.58470271 Ry

     The total energy is F=E-TS. E is the sum of the following terms:
     one-electron contribution =    -151.35339351 Ry
     hartree contribution      =      91.63168215 Ry
     xc contribution           =     -52.88886030 Ry
     ewald contribution        =    -259.82070277 Ry
     one-center paw contrib.   =     -76.15342827 Ry

     convergence has been achieved in  29 iterations

     negative rho (up, down):  6.955E-04 0.000E+00

     Forces acting on atoms (cartesian axes, Ry/au):

     atom    1 type  1   force =     0.00000000    0.00000000    0.00000000
     atom    2 type  2   force =     0.00000000    0.00000000    0.00000000

     Total force =     0.000000     Total SCF correction =     0.000000


     Computing stress (Cartesian axis) and pressure


     negative rho (up, down):  6.955E-04 0.000E+00
          total   stress  (Ry/bohr**3)                   (kbar)     P=       23.60
   0.00016044   0.00000000   0.00000000           23.60        0.00        0.00
   0.00000000   0.00016044   0.00000000            0.00       23.60        0.00
   0.00000000   0.00000000   0.00016044            0.00        0.00       23.60


     Writing all to output data dir ./TiFe.save/ :
     XML data file, charge density, pseudopotentials, collected wavefunctions

     init_run     :      0.55s CPU      0.57s WALL (       1 calls)
     electrons    :      6.75s CPU      7.07s WALL (       1 calls)
     forces       :      0.02s CPU      0.02s WALL (       1 calls)
     stress       :      0.11s CPU      0.11s WALL (       1 calls)

     Called by init_run:
     wfcinit      :      0.08s CPU      0.09s WALL (       1 calls)
     potinit      :      0.18s CPU      0.19s WALL (       1 calls)
     hinit0       :      0.27s CPU      0.28s WALL (       1 calls)

     Called by electrons:
     c_bands      :      4.69s CPU      4.90s WALL (      29 calls)
     sum_band     :      0.78s CPU      0.81s WALL (      29 calls)
     v_of_rho     :      0.05s CPU      0.05s WALL (      30 calls)
     newd         :      0.20s CPU      0.20s WALL (      30 calls)
     PAW_pot      :      1.04s CPU      1.08s WALL (      30 calls)
     mix_rho      :      0.02s CPU      0.02s WALL (      29 calls)

     Called by c_bands:
     init_us_2    :      0.08s CPU      0.08s WALL (    2135 calls)
     cegterg      :      4.51s CPU      4.71s WALL (    1015 calls)

     Called by *egterg:
     cdiaghg      :      1.17s CPU      1.22s WALL (    3966 calls)
     h_psi        :      2.73s CPU      2.86s WALL (    4001 calls)
     s_psi        :      0.08s CPU      0.08s WALL (    4001 calls)
     g_psi        :      0.02s CPU      0.02s WALL (    2951 calls)

     Called by h_psi:
     h_psi:calbec :      0.19s CPU      0.20s WALL (    4001 calls)
     vloc_psi     :      2.45s CPU      2.56s WALL (    4001 calls)
     add_vuspsi   :      0.08s CPU      0.08s WALL (    4001 calls)

     General routines
     calbec       :      0.27s CPU      0.28s WALL (    5611 calls)
     fft          :      0.27s CPU      0.27s WALL (     413 calls)
     ffts         :      0.14s CPU      0.14s WALL (      59 calls)
     fftw         :      2.58s CPU      2.71s WALL (  117730 calls)
     interpolate  :      0.14s CPU      0.14s WALL (      30 calls)

     Parallel routines

     PWSCF        :      7.71s CPU      9.10s WALL


   This run was terminated on:  10:39:30  28Oct2025            

=------------------------------------------------------------------------------=
   JOB DONE.
=------------------------------------------------------------------------------=
Note: The following floating-point exceptions are signalling: IEEE_UNDERFLOW_FLAG IEEE_DENORMAL
Note: The following floating-point exceptions are signalling: IEEE_UNDERFLOW_FLAG IEEE_DENORMAL
Note: The following floating-point exceptions are signalling: IEEE_UNDERFLOW_FLAG IEEE_DENORMAL
Note: The following floating-point exceptions are signalling: IEEE_UNDERFLOW_FLAG IEEE_DENORMAL
Note: The following floating-point exceptions are signalling: IEEE_UNDERFLOW_FLAG IEEE_DENORMAL
Note: The following floating-point exceptions are signalling: IEEE_UNDERFLOW_FLAG IEEE_DENORMAL
Note: The following floating-point exceptions are signalling: IEEE_UNDERFLOW_FLAG IEEE_DENORMAL
Note: The following floating-point exceptions are signalling: IEEE_UNDERFLOW_FLAG IEEE_DENORMAL
Note: The following floating-point exceptions are signalling: IEEE_UNDERFLOW_FLAG IEEE_DENORMAL
Note: The following floating-point exceptions are signalling: IEEE_UNDERFLOW_FLAG IEEE_DENORMAL
Note: The following floating-point exceptions are signalling: IEEE_UNDERFLOW_FLAG IEEE_DENORMAL
Note: The following floating-point exceptions are signalling: IEEE_UNDERFLOW_FLAG IEEE_DENORMAL
Note: The following floating-point exceptions are signalling: IEEE_UNDERFLOW_FLAG IEEE_DENORMAL
Note: The following floating-point exceptions are signalling: IEEE_UNDERFLOW_FLAG IEEE_DENORMAL
Note: The following floating-point exceptions are signalling: IEEE_UNDERFLOW_FLAG IEEE_DENORMAL
Note: The following floating-point exceptions are signalling: IEEE_UNDERFLOW_FLAG IEEE_DENORMAL
