
     Program PWSCF v.7.4 starts on 28Oct2025 at 10:40:14 

     This program is part of the open-source Quantum ESPRESSO suite
     for quantum simulation of materials; please cite
         "P. Giannozzi et al., J. Phys.:Condens. Matter 21 395502 (2009);
         "P. Giannozzi et al., J. Phys.:Condens. Matter 29 465901 (2017);
         "P. Giannozzi et al., J. Chem. Phys. 152 154105 (2020);
          URL http://www.quantum-espresso.org", 
     in publications or presentations arising from this work. More details at
     http://www.quantum-espresso.org/quote

     Parallel version (MPI & OpenMP), running on      16 processor cores
     Number of MPI processes:                16
     Threads/MPI process:                     1

     MPI processes distributed on     1 nodes
     230596 MiB available memory on the printing compute node when the environment starts

     Reading input from TiFe_ecutwfc_convergence/TiFe2_ecut170.in

     Current dimensions of program PWSCF are:
     Max number of different atomic species (ntypx) = 10
     Max number of k-points (npk) =  40000
     Max angular momentum in pseudopotentials (lmaxx) =  4
     file Fe.pbe-spn-kjpaw_psl.0.2.1.UPF: wavefunction(s)  3D renormalized

     IMPORTANT: XC functional enforced from input :
     Exchange-correlation= PBE
                           (   1   4   3   4   0   0   0)
     Any further DFT definition will be discarded
     Please, verify this is what you really want

     Message from routine setup:
     using ibrav=0 with symmetry is DISCOURAGED, use correct ibrav instead

     R & G space division:  proc/nbgrp/npool/nimage =      16
     Subspace diagonalization in iterative solution of the eigenvalue problem:
     a serial algorithm will be used


     Parallelization info
     --------------------
     sticks:   dense  smooth     PW     G-vecs:    dense   smooth      PW
     Min         130     104     30                 4474     3214     488
     Max         131     105     31                 4477     3217     489
     Sum        2085    1669    481                71591    51435    7809

     Using Slab Decomposition



     bravais-lattice index     =            0
     lattice parameter (alat)  =       5.5533  a.u.
     unit-cell volume          =     171.2590 (a.u.)^3
     number of atoms/cell      =            2
     number of atomic types    =            2
     number of electrons       =        28.00
     number of Kohn-Sham states=           18
     kinetic-energy cutoff     =     170.0000  Ry
     charge density cutoff     =     850.0000  Ry
     scf convergence threshold =      1.0E-08
     mixing beta               =       0.7000
     number of iterations used =            8  plain     mixing
     Exchange-correlation= PBE
                           (   1   4   3   4   0   0   0)

     celldm(1)=   5.553300  celldm(2)=   0.000000  celldm(3)=   0.000000
     celldm(4)=   0.000000  celldm(5)=   0.000000  celldm(6)=   0.000000

     crystal axes: (cart. coord. in units of alat)
               a(1) = (   1.000000   0.000000   0.000000 )  
               a(2) = (   0.000000   1.000000   0.000000 )  
               a(3) = (   0.000000   0.000000   1.000000 )  

     reciprocal axes: (cart. coord. in units 2 pi/alat)
               b(1) = (  1.000000  0.000000  0.000000 )  
               b(2) = (  0.000000  1.000000  0.000000 )  
               b(3) = (  0.000000  0.000000  1.000000 )  


     PseudoPot. # 1 for Fe read from file:
     ./Fe.pbe-spn-kjpaw_psl.0.2.1.UPF
     MD5 check sum: e86618425769142926afa95317d90200
     Pseudo is Projector augmented-wave + core cor, Zval = 16.0
     Generated using "atomic" code by A. Dal Corso  v.5.0.99 svn rev. 10869
     Shape of augmentation charge: PSQ
     Using radial grid of 1191 points,  6 beta functions with: 
                l(1) =   0
                l(2) =   0
                l(3) =   1
                l(4) =   1
                l(5) =   2
                l(6) =   2
     Q(r) pseudized with 0 coefficients 


     PseudoPot. # 2 for Ti read from file:
     ./Ti_pbe_v1.4.uspp.F.UPF
     MD5 check sum: 88a00a6731bd790ddea75d31a80cb452
     Pseudo is Ultrasoft + core correction, Zval = 12.0
     Generated by new atomic code, or converted to UPF format
     Using radial grid of  851 points,  6 beta functions with: 
                l(1) =   0
                l(2) =   0
                l(3) =   1
                l(4) =   1
                l(5) =   2
                l(6) =   2
     Q(r) pseudized with  6 coefficients,  rinner =    1.000   1.000   1.000
                                                       1.000   1.000

     atomic species   valence    mass     pseudopotential
     Fe               16.00    55.84500     Fe( 1.00)
     Ti               12.00    47.86700     Ti( 1.00)

     48 Sym. Ops., with inversion, found



   Cartesian axes

     site n.     atom                  positions (alat units)
         1        Fe     tau(   1) = (   0.5000000   0.5000000   0.5000000  )
         2        Ti     tau(   2) = (   0.0000000   0.0000000   0.0000000  )

     number of k points=    35  Marzari-Vanderbilt smearing, width (Ry)=  0.0050
                       cart. coord. in units 2pi/alat
        k(    1) = (   0.0000000   0.0000000   0.0000000), wk =   0.0027435
        k(    2) = (   0.0000000   0.0000000   0.1111111), wk =   0.0164609
        k(    3) = (   0.0000000   0.0000000   0.2222222), wk =   0.0164609
        k(    4) = (   0.0000000   0.0000000   0.3333333), wk =   0.0164609
        k(    5) = (   0.0000000   0.0000000   0.4444444), wk =   0.0164609
        k(    6) = (   0.0000000   0.1111111   0.1111111), wk =   0.0329218
        k(    7) = (   0.0000000   0.1111111   0.2222222), wk =   0.0658436
        k(    8) = (   0.0000000   0.1111111   0.3333333), wk =   0.0658436
        k(    9) = (   0.0000000   0.1111111   0.4444444), wk =   0.0658436
        k(   10) = (   0.0000000   0.2222222   0.2222222), wk =   0.0329218
        k(   11) = (   0.0000000   0.2222222   0.3333333), wk =   0.0658436
        k(   12) = (   0.0000000   0.2222222   0.4444444), wk =   0.0658436
        k(   13) = (   0.0000000   0.3333333   0.3333333), wk =   0.0329218
        k(   14) = (   0.0000000   0.3333333   0.4444444), wk =   0.0658436
        k(   15) = (   0.0000000   0.4444444   0.4444444), wk =   0.0329218
        k(   16) = (   0.1111111   0.1111111   0.1111111), wk =   0.0219479
        k(   17) = (   0.1111111   0.1111111   0.2222222), wk =   0.0658436
        k(   18) = (   0.1111111   0.1111111   0.3333333), wk =   0.0658436
        k(   19) = (   0.1111111   0.1111111   0.4444444), wk =   0.0658436
        k(   20) = (   0.1111111   0.2222222   0.2222222), wk =   0.0658436
        k(   21) = (   0.1111111   0.2222222   0.3333333), wk =   0.1316872
        k(   22) = (   0.1111111   0.2222222   0.4444444), wk =   0.1316872
        k(   23) = (   0.1111111   0.3333333   0.3333333), wk =   0.0658436
        k(   24) = (   0.1111111   0.3333333   0.4444444), wk =   0.1316872
        k(   25) = (   0.1111111   0.4444444   0.4444444), wk =   0.0658436
        k(   26) = (   0.2222222   0.2222222   0.2222222), wk =   0.0219479
        k(   27) = (   0.2222222   0.2222222   0.3333333), wk =   0.0658436
        k(   28) = (   0.2222222   0.2222222   0.4444444), wk =   0.0658436
        k(   29) = (   0.2222222   0.3333333   0.3333333), wk =   0.0658436
        k(   30) = (   0.2222222   0.3333333   0.4444444), wk =   0.1316872
        k(   31) = (   0.2222222   0.4444444   0.4444444), wk =   0.0658436
        k(   32) = (   0.3333333   0.3333333   0.3333333), wk =   0.0219479
        k(   33) = (   0.3333333   0.3333333   0.4444444), wk =   0.0658436
        k(   34) = (   0.3333333   0.4444444   0.4444444), wk =   0.0658436
        k(   35) = (   0.4444444   0.4444444   0.4444444), wk =   0.0219479

     Dense  grid:    71591 G-vectors     FFT dimensions: (  54,  54,  54)

     Smooth grid:    51435 G-vectors     FFT dimensions: (  48,  48,  48)

     Estimated max dynamical RAM per process >      25.37 MB

     Estimated total dynamical RAM >     405.95 MB

     Check: negative core charge=   -0.000006

     Initial potential from superposition of free atoms

     starting charge      26.9995, renormalised to      28.0000

     negative rho (up, down):  1.357E-03 0.000E+00
     Starting wfcs are   23 randomized atomic wfcs
     Checking if some PAW data can be deallocated... 

     total cpu time spent up to now is        1.1 secs

     per-process dynamical memory:   130.4 Mb

     Self-consistent Calculation

     iteration #  1     ecut=   170.00 Ry     beta= 0.70
     Davidson diagonalization with overlap
     ethr =  1.00E-02,  avg # of iterations =  2.1

     negative rho (up, down):  1.719E-04 0.000E+00

     total cpu time spent up to now is        1.5 secs

     WARNING: integrated charge=    28.00079194, expected=    28.00000000

     total energy              =    -434.86617410 Ry
     estimated scf accuracy    <      17.49116388 Ry

     iteration #  2     ecut=   170.00 Ry     beta= 0.70
     Davidson diagonalization with overlap
     ethr =  1.00E-02,  avg # of iterations =  6.1

     negative rho (up, down):  5.420E-05 0.000E+00

     total cpu time spent up to now is        2.3 secs

     WARNING: integrated charge=    28.00060410, expected=    28.00000000

     total energy              =    -448.53148583 Ry
     estimated scf accuracy    <      66.08727994 Ry

     iteration #  3     ecut=   170.00 Ry     beta= 0.70
     Davidson diagonalization with overlap
     ethr =  1.00E-02,  avg # of iterations =  3.2
     Minimization algorithm failed to find Fermi energy: reverting to bisection
     Possible cause: smearing is larger than the electronic band-gap.

     negative rho (up, down):  2.078E-04 0.000E+00

     total cpu time spent up to now is        2.9 secs

     WARNING: integrated charge=    28.00048177, expected=    28.00000000

     total energy              =    -448.59267977 Ry
     estimated scf accuracy    <      16.78806990 Ry

     iteration #  4     ecut=   170.00 Ry     beta= 0.70
     Davidson diagonalization with overlap
     ethr =  1.00E-02,  avg # of iterations =  2.1

     negative rho (up, down):  2.473E-04 0.000E+00

     total cpu time spent up to now is        3.4 secs

     WARNING: integrated charge=    28.00081012, expected=    28.00000000

     total energy              =    -449.10797013 Ry
     estimated scf accuracy    <       4.68897709 Ry

     iteration #  5     ecut=   170.00 Ry     beta= 0.70
     Davidson diagonalization with overlap
     ethr =  1.00E-02,  avg # of iterations =  1.0

     negative rho (up, down):  3.018E-04 0.000E+00

     total cpu time spent up to now is        3.7 secs

     WARNING: integrated charge=    27.99640237, expected=    28.00000000

     total energy              =    -449.11216635 Ry
     estimated scf accuracy    <       4.28666613 Ry

     iteration #  6     ecut=   170.00 Ry     beta= 0.70
     Davidson diagonalization with overlap
     ethr =  1.00E-02,  avg # of iterations =  1.0

     negative rho (up, down):  1.006E-03 0.000E+00

     total cpu time spent up to now is        4.1 secs

     WARNING: integrated charge=    27.98588310, expected=    28.00000000

     total energy              =    -447.92147564 Ry
     estimated scf accuracy    <       4.47363430 Ry

     iteration #  7     ecut=   170.00 Ry     beta= 0.70
     Davidson diagonalization with overlap
     ethr =  1.00E-02,  avg # of iterations =  3.4

     negative rho (up, down):  8.578E-04 0.000E+00

     total cpu time spent up to now is        4.6 secs

     WARNING: integrated charge=    27.98627654, expected=    28.00000000

     total energy              =    -448.59888195 Ry
     estimated scf accuracy    <       3.41090196 Ry

     iteration #  8     ecut=   170.00 Ry     beta= 0.70
     Davidson diagonalization with overlap
     ethr =  1.00E-02,  avg # of iterations =  1.0

     negative rho (up, down):  7.276E-04 0.000E+00

     total cpu time spent up to now is        5.0 secs

     WARNING: integrated charge=    27.98673216, expected=    28.00000000

     total energy              =    -448.48229527 Ry
     estimated scf accuracy    <       1.27013863 Ry

     iteration #  9     ecut=   170.00 Ry     beta= 0.70
     Davidson diagonalization with overlap
     ethr =  4.54E-03,  avg # of iterations =  1.8

     negative rho (up, down):  7.285E-04 0.000E+00

     total cpu time spent up to now is        5.4 secs

     WARNING: integrated charge=    27.98671312, expected=    28.00000000

     total energy              =    -448.58965379 Ry
     estimated scf accuracy    <       0.06006248 Ry

     iteration # 10     ecut=   170.00 Ry     beta= 0.70
     Davidson diagonalization with overlap
     ethr =  2.15E-04,  avg # of iterations =  3.6

     negative rho (up, down):  7.353E-04 0.000E+00

     total cpu time spent up to now is        5.9 secs

     WARNING: integrated charge=    27.98591676, expected=    28.00000000

     total energy              =    -448.60538287 Ry
     estimated scf accuracy    <       0.07999286 Ry

     iteration # 11     ecut=   170.00 Ry     beta= 0.70
     Davidson diagonalization with overlap
     ethr =  2.15E-04,  avg # of iterations =  2.1

     negative rho (up, down):  7.416E-04 0.000E+00

     total cpu time spent up to now is        6.3 secs

     WARNING: integrated charge=    27.98513052, expected=    28.00000000

     total energy              =    -448.59908857 Ry
     estimated scf accuracy    <       0.38291134 Ry

     iteration # 12     ecut=   170.00 Ry     beta= 0.70
     Davidson diagonalization with overlap
     ethr =  2.15E-04,  avg # of iterations =  1.0

     negative rho (up, down):  7.096E-04 0.000E+00

     total cpu time spent up to now is        6.7 secs

     WARNING: integrated charge=    27.98965642, expected=    28.00000000

     total energy              =    -448.62613226 Ry
     estimated scf accuracy    <       0.20249115 Ry

     iteration # 13     ecut=   170.00 Ry     beta= 0.70
     Davidson diagonalization with overlap
     ethr =  2.15E-04,  avg # of iterations =  1.9

     negative rho (up, down):  6.565E-04 0.000E+00

     total cpu time spent up to now is        7.1 secs

     WARNING: integrated charge=    27.99945656, expected=    28.00000000

     total energy              =    -448.77472800 Ry
     estimated scf accuracy    <       0.44318042 Ry

     iteration # 14     ecut=   170.00 Ry     beta= 0.70
     Davidson diagonalization with overlap
     ethr =  2.15E-04,  avg # of iterations =  4.6

     negative rho (up, down):  7.273E-04 0.000E+00

     total cpu time spent up to now is        7.7 secs

     WARNING: integrated charge=    27.99935908, expected=    28.00000000

     total energy              =    -448.67373088 Ry
     estimated scf accuracy    <       1.18256607 Ry

     iteration # 15     ecut=   170.00 Ry     beta= 0.70
     Davidson diagonalization with overlap
     ethr =  2.15E-04,  avg # of iterations =  3.0

     negative rho (up, down):  7.191E-04 0.000E+00

     total cpu time spent up to now is        8.2 secs

     WARNING: integrated charge=    27.99980613, expected=    28.00000000

     total energy              =    -448.64262887 Ry
     estimated scf accuracy    <       0.53232150 Ry

     iteration # 16     ecut=   170.00 Ry     beta= 0.70
     Davidson diagonalization with overlap
     ethr =  2.15E-04,  avg # of iterations =  2.5

     negative rho (up, down):  1.043E-03 0.000E+00

     total cpu time spent up to now is        8.6 secs

     WARNING: integrated charge=    27.99925507, expected=    28.00000000

     total energy              =    -448.51856597 Ry
     estimated scf accuracy    <       0.28971900 Ry

     iteration # 17     ecut=   170.00 Ry     beta= 0.70
     Davidson diagonalization with overlap
     ethr =  2.15E-04,  avg # of iterations =  5.4

     negative rho (up, down):  8.961E-04 0.000E+00

     total cpu time spent up to now is        9.2 secs

     WARNING: integrated charge=    27.99953178, expected=    28.00000000

     total energy              =    -448.58624955 Ry
     estimated scf accuracy    <       0.59783200 Ry

     iteration # 18     ecut=   170.00 Ry     beta= 0.70
     Davidson diagonalization with overlap
     ethr =  2.15E-04,  avg # of iterations =  2.3

     negative rho (up, down):  8.740E-04 0.000E+00

     total cpu time spent up to now is        9.7 secs

     WARNING: integrated charge=    27.99983571, expected=    28.00000000

     total energy              =    -448.58210217 Ry
     estimated scf accuracy    <       0.16157477 Ry

     iteration # 19     ecut=   170.00 Ry     beta= 0.70
     Davidson diagonalization with overlap
     ethr =  2.15E-04,  avg # of iterations =  2.6

     negative rho (up, down):  8.561E-04 0.000E+00

     total cpu time spent up to now is       10.1 secs

     WARNING: integrated charge=    27.99992556, expected=    28.00000000

     total energy              =    -448.58704574 Ry
     estimated scf accuracy    <       0.01556600 Ry

     iteration # 20     ecut=   170.00 Ry     beta= 0.70
     Davidson diagonalization with overlap
     ethr =  5.56E-05,  avg # of iterations =  1.5

     negative rho (up, down):  8.424E-04 0.000E+00

     total cpu time spent up to now is       10.5 secs

     WARNING: integrated charge=    27.99990926, expected=    28.00000000

     total energy              =    -448.58655858 Ry
     estimated scf accuracy    <       0.01366491 Ry

     iteration # 21     ecut=   170.00 Ry     beta= 0.70
     Davidson diagonalization with overlap
     ethr =  4.88E-05,  avg # of iterations =  1.1

     negative rho (up, down):  8.798E-04 0.000E+00

     total cpu time spent up to now is       10.9 secs

     WARNING: integrated charge=    28.00039266, expected=    28.00000000

     total energy              =    -448.58777571 Ry
     estimated scf accuracy    <       0.00396322 Ry

     iteration # 22     ecut=   170.00 Ry     beta= 0.70
     Davidson diagonalization with overlap
     ethr =  1.42E-05,  avg # of iterations =  1.4

     negative rho (up, down):  9.470E-04 0.000E+00

     total cpu time spent up to now is       11.3 secs

     WARNING: integrated charge=    28.00009948, expected=    28.00000000

     total energy              =    -448.59141995 Ry
     estimated scf accuracy    <       0.01944372 Ry

     iteration # 23     ecut=   170.00 Ry     beta= 0.70
     Davidson diagonalization with overlap
     ethr =  1.42E-05,  avg # of iterations =  3.4

     negative rho (up, down):  8.091E-04 0.000E+00

     total cpu time spent up to now is       11.7 secs

     WARNING: integrated charge=    27.99959337, expected=    28.00000000

     total energy              =    -448.57984846 Ry
     estimated scf accuracy    <       0.08378682 Ry

     iteration # 24     ecut=   170.00 Ry     beta= 0.70
     Davidson diagonalization with overlap
     ethr =  1.42E-05,  avg # of iterations =  4.7

     negative rho (up, down):  8.156E-04 0.000E+00

     total cpu time spent up to now is       12.3 secs

     WARNING: integrated charge=    27.99989729, expected=    28.00000000

     total energy              =    -448.58641906 Ry
     estimated scf accuracy    <       0.00297721 Ry

     iteration # 25     ecut=   170.00 Ry     beta= 0.70
     Davidson diagonalization with overlap
     ethr =  1.06E-05,  avg # of iterations =  1.1

     negative rho (up, down):  8.175E-04 0.000E+00

     total cpu time spent up to now is       12.7 secs

     WARNING: integrated charge=    27.99996866, expected=    28.00000000

     total energy              =    -448.58668730 Ry
     estimated scf accuracy    <       0.00007177 Ry

     iteration # 26     ecut=   170.00 Ry     beta= 0.70
     Davidson diagonalization with overlap
     ethr =  2.56E-07,  avg # of iterations =  4.7

     negative rho (up, down):  8.086E-04 0.000E+00

     total cpu time spent up to now is       13.2 secs

     WARNING: integrated charge=    28.00004706, expected=    28.00000000

     total energy              =    -448.58648764 Ry
     estimated scf accuracy    <       0.00094979 Ry

     iteration # 27     ecut=   170.00 Ry     beta= 0.70
     Davidson diagonalization with overlap
     ethr =  2.56E-07,  avg # of iterations =  5.0

     negative rho (up, down):  8.067E-04 0.000E+00

     total cpu time spent up to now is       13.8 secs

     WARNING: integrated charge=    28.00002206, expected=    28.00000000

     total energy              =    -448.58673552 Ry
     estimated scf accuracy    <       0.00154474 Ry

     iteration # 28     ecut=   170.00 Ry     beta= 0.70
     Davidson diagonalization with overlap
     ethr =  2.56E-07,  avg # of iterations =  1.1

     negative rho (up, down):  8.045E-04 0.000E+00

     total cpu time spent up to now is       14.2 secs

     WARNING: integrated charge=    27.99998377, expected=    28.00000000

     total energy              =    -448.58665445 Ry
     estimated scf accuracy    <       0.00100619 Ry

     iteration # 29     ecut=   170.00 Ry     beta= 0.70
     Davidson diagonalization with overlap
     ethr =  2.56E-07,  avg # of iterations =  2.7

     negative rho (up, down):  8.046E-04 0.000E+00

     total cpu time spent up to now is       14.6 secs

     WARNING: integrated charge=    28.00000537, expected=    28.00000000

     total energy              =    -448.58667446 Ry
     estimated scf accuracy    <       0.00013667 Ry

     iteration # 30     ecut=   170.00 Ry     beta= 0.70
     Davidson diagonalization with overlap
     ethr =  2.56E-07,  avg # of iterations =  1.0

     negative rho (up, down):  8.045E-04 0.000E+00

     total cpu time spent up to now is       15.0 secs

     total energy              =    -448.58667385 Ry
     estimated scf accuracy    <       0.00005476 Ry

     iteration # 31     ecut=   170.00 Ry     beta= 0.70
     Davidson diagonalization with overlap
     ethr =  1.96E-07,  avg # of iterations =  1.0

     negative rho (up, down):  8.047E-04 0.000E+00

     total cpu time spent up to now is       15.4 secs

     WARNING: integrated charge=    27.99999682, expected=    28.00000000

     total energy              =    -448.58667423 Ry
     estimated scf accuracy    <       0.00002542 Ry

     iteration # 32     ecut=   170.00 Ry     beta= 0.70
     Davidson diagonalization with overlap
     ethr =  9.08E-08,  avg # of iterations =  1.2

     negative rho (up, down):  8.047E-04 0.000E+00

     total cpu time spent up to now is       15.8 secs

     WARNING: integrated charge=    27.99999580, expected=    28.00000000

     total energy              =    -448.58667417 Ry
     estimated scf accuracy    <       0.00001879 Ry

     iteration # 33     ecut=   170.00 Ry     beta= 0.70
     Davidson diagonalization with overlap
     ethr =  6.71E-08,  avg # of iterations =  1.1

     negative rho (up, down):  8.047E-04 0.000E+00

     total cpu time spent up to now is       16.2 secs

     WARNING: integrated charge=    27.99999709, expected=    28.00000000

     total energy              =    -448.58667328 Ry
     estimated scf accuracy    <       0.00001155 Ry

     iteration # 34     ecut=   170.00 Ry     beta= 0.70
     Davidson diagonalization with overlap
     ethr =  4.12E-08,  avg # of iterations =  2.5

     negative rho (up, down):  8.046E-04 0.000E+00

     total cpu time spent up to now is       16.6 secs

     total energy              =    -448.58667395 Ry
     estimated scf accuracy    <       0.00000028 Ry

     iteration # 35     ecut=   170.00 Ry     beta= 0.70
     Davidson diagonalization with overlap
     ethr =  9.99E-10,  avg # of iterations =  4.9

     negative rho (up, down):  8.047E-04 0.000E+00

     total cpu time spent up to now is       17.2 secs

     total energy              =    -448.58667418 Ry
     estimated scf accuracy    <       0.00000020 Ry

     iteration # 36     ecut=   170.00 Ry     beta= 0.70
     Davidson diagonalization with overlap
     ethr =  7.15E-10,  avg # of iterations =  1.0

     negative rho (up, down):  8.047E-04 0.000E+00

     total cpu time spent up to now is       17.6 secs

     total energy              =    -448.58667418 Ry
     estimated scf accuracy    <       0.00000003 Ry

     iteration # 37     ecut=   170.00 Ry     beta= 0.70
     Davidson diagonalization with overlap
     ethr =  1.23E-10,  avg # of iterations =  2.4

     negative rho (up, down):  8.046E-04 0.000E+00

     total cpu time spent up to now is       18.0 secs

     End of self-consistent calculation

          k = 0.0000 0.0000 0.0000 (  6403 PWs)   bands (ev):

   -69.2043 -39.1408 -35.2661 -35.2661 -35.2661 -15.2357 -15.2357 -15.2357
    10.1529  13.8668  13.8668  16.6614  16.6614  16.6614  19.0044  19.0044
    20.9449  20.9449

          k = 0.0000 0.0000 0.1111 (  6431 PWs)   bands (ev):

   -69.2039 -39.1376 -35.2699 -35.2656 -35.2656 -15.2788 -15.2331 -15.2331
    10.4101  13.9907  13.9986  16.6429  16.6429  16.7175  18.8473  19.0621
    20.5823  20.5823

          k = 0.0000 0.0000 0.2222 (  6431 PWs)   bands (ev):

   -69.2028 -39.1297 -35.2792 -35.2641 -35.2641 -15.3869 -15.2266 -15.2266
    11.1436  14.3127  14.3486  16.6063  16.6063  16.8689  18.4023  19.1657
    19.8172  19.8172

          k = 0.0000 0.0000 0.3333 (  6443 PWs)   bands (ev):

   -69.2017 -39.1207 -35.2897 -35.2625 -35.2625 -15.5079 -15.2191 -15.2191
    12.2343  14.5611  14.8884  16.5884  16.5884  17.0614  17.7586  19.0699
    19.0899  19.0899

          k = 0.0000 0.0000 0.4444 (  6443 PWs)   bands (ev):

   -69.2009 -39.1148 -35.2965 -35.2614 -35.2614 -15.5858 -15.2143 -15.2143
    13.4361  14.3572  15.4423  16.5969  16.5969  17.1341  17.2028  18.6543
    18.6543  18.6886

          k = 0.0000 0.1111 0.1111 (  6421 PWs)   bands (ev):

   -69.2035 -39.1342 -35.2712 -35.2678 -35.2650 -15.2800 -15.2712 -15.2304
    10.6594  14.1026  14.1344  16.5211  16.6075  16.8504  18.8364  19.0204
    20.2145  20.2228

          k = 0.0000 0.1111 0.2222 (  6414 PWs)   bands (ev):

   -69.2024 -39.1256 -35.2800 -35.2680 -35.2636 -15.3826 -15.2672 -15.2234
    11.3671  14.3907  14.4886  16.4126  16.5285  16.9760  18.5221  19.1065
    19.5188  19.6218

          k = 0.0000 0.1111 0.3333 (  6418 PWs)   bands (ev):

   -69.2013 -39.1158 -35.2908 -35.2674 -35.2620 -15.5017 -15.2582 -15.2154
    12.4070  14.6302  14.9693  16.3812  16.4516  16.9783  18.0218  18.7289
    19.1996  19.2930

          k = 0.0000 0.1111 0.4444 (  6422 PWs)   bands (ev):

   -69.2005 -39.1094 -35.2979 -35.2670 -35.2609 -15.5784 -15.2524 -15.2102
    13.5282  14.4158  15.4510  16.3727  16.4279  16.8598  17.6151  18.3321
    19.0622  19.1220

          k = 0.0000 0.2222 0.2222 (  6426 PWs)   bands (ev):

   -69.2014 -39.1152 -35.2841 -35.2760 -35.2623 -15.3806 -15.3601 -15.2153
    11.9851  14.5177  14.9057  16.1678  16.3905  16.9252  18.6820  18.9277
    19.0774  19.4446

          k = 0.0000 0.2222 0.3333 (  6418 PWs)   bands (ev):

   -69.2003 -39.1033 -35.2939 -35.2798 -35.2607 -15.4861 -15.3562 -15.2061
    12.8342  14.5595  15.4147  16.0314  16.3565  16.6321  18.4522  18.5679
    19.2724  19.5511

          k = 0.0000 0.2222 0.4444 (  6400 PWs)   bands (ev):

   -69.1995 -39.0955 -35.3013 -35.2811 -35.2597 -15.5598 -15.3480 -15.2001
    13.6333  14.3472  15.7685  16.0519  16.3089  16.5252  18.1620  18.3865
    19.4418  19.7733

          k = 0.0000 0.3333 0.3333 (  6420 PWs)   bands (ev):

   -69.1991 -39.0890 -35.2987 -35.2924 -35.2593 -15.4751 -15.4595 -15.1955
    13.2770  14.3423  15.7742  16.0817  16.1899  16.5973  18.4983  18.9570
    19.1302  20.0105

          k = 0.0000 0.3333 0.4444 (  6400 PWs)   bands (ev):

   -69.1983 -39.0796 -35.3054 -35.2971 -35.2583 -15.5386 -15.4553 -15.1885
    13.5431  14.1320  15.7014  15.8511  16.5378  17.2526  18.2577  19.0235
    19.3896  20.4024

          k = 0.0000 0.4444 0.4444 (  6378 PWs)   bands (ev):

   -69.1976 -39.0692 -35.3083 -35.3073 -35.2574 -15.5258 -15.5234 -15.1809
    13.4110  13.9878  15.5239  15.5745  17.4119  17.8949  18.6531  18.8988
    19.4000  20.7932

          k = 0.1111 0.1111 0.1111 (  6415 PWs)   bands (ev):

   -69.2031 -39.1306 -35.2706 -35.2706 -35.2662 -15.2800 -15.2685 -15.2685
    10.9027  14.2397  14.2397  16.4824  16.4824  16.9328  18.9191  18.9191
    19.6871  20.5509

          k = 0.1111 0.1111 0.2222 (  6415 PWs)   bands (ev):

   -69.2020 -39.1214 -35.2803 -35.2691 -35.2665 -15.3783 -15.2657 -15.2618
    11.5899  14.5390  14.5600  16.3345  16.3837  16.9339  18.6336  19.0553
    19.2932  19.7869

          k = 0.1111 0.1111 0.3333 (  6412 PWs)   bands (ev):

   -69.2009 -39.1109 -35.2916 -35.2674 -35.2666 -15.4958 -15.2549 -15.2542
    12.5886  14.7776  14.9748  16.2511  16.3094  16.7822  18.2363  18.8266
    19.0882  19.4695

          k = 0.1111 0.1111 0.4444 (  6418 PWs)   bands (ev):

   -69.2001 -39.1040 -35.2990 -35.2667 -35.2663 -15.5716 -15.2492 -15.2478
    13.6445  14.5216  15.4011  16.0882  16.4640  16.6556  17.9097  18.4425
    18.6926  19.7757

          k = 0.1111 0.2222 0.2222 (  6437 PWs)   bands (ev):

   -69.2010 -39.1107 -35.2834 -35.2768 -35.2668 -15.3752 -15.3573 -15.2551
    12.2042  14.6852  14.9560  16.1096  16.2316  16.6655  18.7807  19.0553
    19.1788  19.5653

          k = 0.1111 0.2222 0.3333 (  6405 PWs)   bands (ev):

   -69.1999 -39.0985 -35.2939 -35.2797 -35.2659 -15.4810 -15.3526 -15.2452
    13.0400  14.7475  15.3796  15.9599  16.1841  16.3782  18.6602  18.7091
    19.1637  19.8256

          k = 0.1111 0.2222 0.4444 (  6407 PWs)   bands (ev):

   -69.1991 -39.0905 -35.3018 -35.2806 -35.2652 -15.5543 -15.3445 -15.2386
    13.8089  14.5240  15.5936  15.8927  16.2206  16.4966  18.2709  18.5492
    18.9338  20.4572

          k = 0.1111 0.3333 0.3333 (  6412 PWs)   bands (ev):

   -69.1987 -39.0843 -35.2980 -35.2925 -35.2647 -15.4701 -15.4566 -15.2345
    13.4982  14.5252  15.7243  16.0001  16.0454  16.3674  18.5345  19.0226
    19.1244  20.3727

          k = 0.1111 0.3333 0.4444 (  6404 PWs)   bands (ev):

   -69.1980 -39.0750 -35.3051 -35.2965 -35.2638 -15.5346 -15.4521 -15.2274
    13.7458  14.3194  15.6445  15.7439  16.4458  17.0247  18.2489  18.9231
    19.2083  20.7256

          k = 0.1111 0.4444 0.4444 (  6387 PWs)   bands (ev):

   -69.1972 -39.0649 -35.3075 -35.3066 -35.2628 -15.5226 -15.5205 -15.2201
    13.6145  14.1771  15.4904  15.5314  17.3096  17.6411  18.3851  18.4775
    19.5189  20.9964

          k = 0.2222 0.2222 0.2222 (  6430 PWs)   bands (ev):

   -69.2000 -39.0993 -35.2818 -35.2818 -35.2754 -15.3659 -15.3503 -15.3503
    12.8007  15.0890  15.0890  15.9656  15.9656  16.1366  18.9756  18.9756
    19.7331  19.8015

          k = 0.2222 0.2222 0.3333 (  6423 PWs)   bands (ev):

   -69.1989 -39.0863 -35.2942 -35.2799 -35.2784 -15.4682 -15.3441 -15.3422
    13.5720  15.2105  15.2561  15.8006  15.8790  15.9763  18.8094  18.8382
    19.2743  20.2071

          k = 0.2222 0.2222 0.4444 (  6390 PWs)   bands (ev):

   -69.1981 -39.0778 -35.3030 -35.2796 -35.2787 -15.5403 -15.3370 -15.3338
    14.1884  14.8272  15.3911  15.6743  16.0215  16.3834  18.3150  18.6273
    19.0634  20.5593

          k = 0.2222 0.3333 0.3333 (  6414 PWs)   bands (ev):

   -69.1977 -39.0724 -35.2962 -35.2929 -35.2782 -15.4574 -15.4494 -15.3323
    14.1079  14.9632  15.6085  15.6568  15.8759  15.9300  18.5787  18.7296
    19.5872  20.3140

          k = 0.2222 0.3333 0.4444 (  6391 PWs)   bands (ev):

   -69.1970 -39.0634 -35.3044 -35.2950 -35.2775 -15.5244 -15.4440 -15.3251
    14.2950  14.7585  15.5184  15.5650  16.1325  16.5573  18.2057  18.5102
    19.6337  20.6966

          k = 0.2222 0.4444 0.4444 (  6414 PWs)   bands (ev):

   -69.1962 -39.0539 -35.3056 -35.3051 -35.2765 -15.5146 -15.5134 -15.3184
    14.1814  14.6482  15.4205  15.4502  16.8819  16.9024  18.0403  18.2420
    19.9145  21.0510

          k = 0.3333 0.3333 0.3333 (  6406 PWs)   bands (ev):

   -69.1966 -39.0589 -35.2941 -35.2941 -35.2928 -15.4438 -15.4413 -15.4413
    14.8407  15.1324  15.5029  15.5029  15.7487  15.7487  18.4422  18.4422
    20.2353  20.2353

          k = 0.3333 0.3333 0.4444 (  6398 PWs)   bands (ev):

   -69.1958 -39.0500 -35.3037 -35.2935 -35.2928 -15.5129 -15.4359 -15.4335
    14.8622  15.0702  15.4788  15.5725  15.7993  16.2219  18.0780  18.2966
    20.2287  20.7866

          k = 0.3333 0.4444 0.4444 (  6401 PWs)   bands (ev):

   -69.1951 -39.0413 -35.3034 -35.3033 -35.2919 -15.5055 -15.5052 -15.4286
    14.9322  15.1370  15.3876  15.4788  16.1951  16.2707  17.9124  18.1056
    20.5427  21.0943

          k = 0.4444 0.4444 0.4444 (  6389 PWs)   bands (ev):

   -69.1944 -39.0331 -35.3021 -35.3020 -35.3020 -15.4999 -15.4999 -15.4993
    15.2786  15.4656  15.4656  15.7968  15.7968  15.8048  17.8841  17.8841
    21.1207  21.1207

     the Fermi energy is    17.6490 ev

!    total energy              =    -448.58667418 Ry
     estimated scf accuracy    <          9.4E-10 Ry
     smearing contrib. (-TS)   =      -0.00008120 Ry
     internal energy E=F+TS    =    -448.58659299 Ry

     The total energy is F=E-TS. E is the sum of the following terms:
     one-electron contribution =    -151.35279159 Ry
     hartree contribution      =      91.62977372 Ry
     xc contribution           =     -52.88912330 Ry
     ewald contribution        =    -259.82070277 Ry
     one-center paw contrib.   =     -76.15374904 Ry

     convergence has been achieved in  37 iterations

     negative rho (up, down):  8.046E-04 0.000E+00

     Forces acting on atoms (cartesian axes, Ry/au):

     atom    1 type  1   force =     0.00000000    0.00000000    0.00000000
     atom    2 type  2   force =     0.00000000    0.00000000    0.00000000

     Total force =     0.000000     Total SCF correction =     0.000000


     Computing stress (Cartesian axis) and pressure


     negative rho (up, down):  8.046E-04 0.000E+00
          total   stress  (Ry/bohr**3)                   (kbar)     P=       31.70
   0.00021549   0.00000000   0.00000000           31.70        0.00        0.00
   0.00000000   0.00021549   0.00000000            0.00       31.70        0.00
   0.00000000   0.00000000   0.00021549            0.00        0.00       31.70


     Writing all to output data dir ./TiFe.save/ :
     XML data file, charge density, pseudopotentials, collected wavefunctions

     init_run     :      0.82s CPU      0.85s WALL (       1 calls)
     electrons    :     16.53s CPU     16.97s WALL (       1 calls)
     forces       :      0.07s CPU      0.07s WALL (       1 calls)
     stress       :      0.31s CPU      0.32s WALL (       1 calls)

     Called by init_run:
     wfcinit      :      0.16s CPU      0.17s WALL (       1 calls)
     potinit      :      0.37s CPU      0.38s WALL (       1 calls)
     hinit0       :      0.23s CPU      0.24s WALL (       1 calls)

     Called by electrons:
     c_bands      :     11.33s CPU     11.60s WALL (      37 calls)
     sum_band     :      2.87s CPU      2.93s WALL (      37 calls)
     v_of_rho     :      0.17s CPU      0.18s WALL (      38 calls)
     newd         :      0.82s CPU      0.82s WALL (      38 calls)
     PAW_pot      :      1.32s CPU      1.36s WALL (      38 calls)
     mix_rho      :      0.04s CPU      0.05s WALL (      37 calls)

     Called by c_bands:
     init_us_2    :      0.31s CPU      0.31s WALL (    2695 calls)
     cegterg      :     10.72s CPU     10.97s WALL (    1295 calls)

     Called by *egterg:
     cdiaghg      :      1.31s CPU      1.34s WALL (    4534 calls)
     h_psi        :      7.94s CPU      8.14s WALL (    4569 calls)
     s_psi        :      0.21s CPU      0.21s WALL (    4569 calls)
     g_psi        :      0.04s CPU      0.05s WALL (    3239 calls)

     Called by h_psi:
     h_psi:calbec :      0.42s CPU      0.43s WALL (    4569 calls)
     vloc_psi     :      7.28s CPU      7.46s WALL (    4569 calls)
     add_vuspsi   :      0.21s CPU      0.22s WALL (    4569 calls)

     General routines
     calbec       :      0.61s CPU      0.63s WALL (    6459 calls)
     fft          :      0.29s CPU      0.31s WALL (     517 calls)
     ffts         :      0.34s CPU      0.34s WALL (      75 calls)
     fftw         :      7.90s CPU      8.09s WALL (  135748 calls)
     interpolate  :      0.34s CPU      0.35s WALL (      38 calls)

     Parallel routines

     PWSCF        :     18.00s CPU     20.08s WALL


   This run was terminated on:  10:40:34  28Oct2025            

=------------------------------------------------------------------------------=
   JOB DONE.
=------------------------------------------------------------------------------=
Note: The following floating-point exceptions are signalling: IEEE_UNDERFLOW_FLAG IEEE_DENORMAL
Note: The following floating-point exceptions are signalling: IEEE_UNDERFLOW_FLAG IEEE_DENORMAL
Note: The following floating-point exceptions are signalling: IEEE_UNDERFLOW_FLAG IEEE_DENORMAL
Note: The following floating-point exceptions are signalling: IEEE_UNDERFLOW_FLAG IEEE_DENORMAL
Note: The following floating-point exceptions are signalling: IEEE_UNDERFLOW_FLAG IEEE_DENORMAL
Note: The following floating-point exceptions are signalling: IEEE_UNDERFLOW_FLAG IEEE_DENORMAL
Note: The following floating-point exceptions are signalling: IEEE_UNDERFLOW_FLAG IEEE_DENORMAL
Note: The following floating-point exceptions are signalling: IEEE_UNDERFLOW_FLAG IEEE_DENORMAL
Note: The following floating-point exceptions are signalling: IEEE_UNDERFLOW_FLAG IEEE_DENORMAL
Note: The following floating-point exceptions are signalling: IEEE_UNDERFLOW_FLAG IEEE_DENORMAL
Note: The following floating-point exceptions are signalling: IEEE_UNDERFLOW_FLAG IEEE_DENORMAL
Note: The following floating-point exceptions are signalling: IEEE_UNDERFLOW_FLAG IEEE_DENORMAL
Note: The following floating-point exceptions are signalling: IEEE_UNDERFLOW_FLAG IEEE_DENORMAL
Note: The following floating-point exceptions are signalling: IEEE_UNDERFLOW_FLAG IEEE_DENORMAL
Note: The following floating-point exceptions are signalling: IEEE_UNDERFLOW_FLAG IEEE_DENORMAL
Note: The following floating-point exceptions are signalling: IEEE_UNDERFLOW_FLAG IEEE_DENORMAL
