
     Program PWSCF v.7.4 starts on 28Oct2025 at 10:39:13 

     This program is part of the open-source Quantum ESPRESSO suite
     for quantum simulation of materials; please cite
         "P. Giannozzi et al., J. Phys.:Condens. Matter 21 395502 (2009);
         "P. Giannozzi et al., J. Phys.:Condens. Matter 29 465901 (2017);
         "P. Giannozzi et al., J. Chem. Phys. 152 154105 (2020);
          URL http://www.quantum-espresso.org", 
     in publications or presentations arising from this work. More details at
     http://www.quantum-espresso.org/quote

     Parallel version (MPI & OpenMP), running on      16 processor cores
     Number of MPI processes:                16
     Threads/MPI process:                     1

     MPI processes distributed on     1 nodes
     230654 MiB available memory on the printing compute node when the environment starts

     Reading input from TiFe_ecutwfc_convergence/TiFe2_ecut70.in

     Current dimensions of program PWSCF are:
     Max number of different atomic species (ntypx) = 10
     Max number of k-points (npk) =  40000
     Max angular momentum in pseudopotentials (lmaxx) =  4
     file Fe.pbe-spn-kjpaw_psl.0.2.1.UPF: wavefunction(s)  3D renormalized

     IMPORTANT: XC functional enforced from input :
     Exchange-correlation= PBE
                           (   1   4   3   4   0   0   0)
     Any further DFT definition will be discarded
     Please, verify this is what you really want

     Message from routine setup:
     using ibrav=0 with symmetry is DISCOURAGED, use correct ibrav instead

     K-points division:     npool     =       2
     R & G space division:  proc/nbgrp/npool/nimage =       8
     Subspace diagonalization in iterative solution of the eigenvalue problem:
     a serial algorithm will be used


     Parallelization info
     --------------------
     sticks:   dense  smooth     PW     G-vecs:    dense   smooth      PW
     Min         107      85     26                 2367     1689     286
     Max         109      86     27                 2370     1693     289
     Sum         861     681    213                18949    13517    2301

     Using Slab Decomposition



     bravais-lattice index     =            0
     lattice parameter (alat)  =       5.5533  a.u.
     unit-cell volume          =     171.2590 (a.u.)^3
     number of atoms/cell      =            2
     number of atomic types    =            2
     number of electrons       =        28.00
     number of Kohn-Sham states=           18
     kinetic-energy cutoff     =      70.0000  Ry
     charge density cutoff     =     350.0000  Ry
     scf convergence threshold =      1.0E-08
     mixing beta               =       0.7000
     number of iterations used =            8  plain     mixing
     Exchange-correlation= PBE
                           (   1   4   3   4   0   0   0)

     celldm(1)=   5.553300  celldm(2)=   0.000000  celldm(3)=   0.000000
     celldm(4)=   0.000000  celldm(5)=   0.000000  celldm(6)=   0.000000

     crystal axes: (cart. coord. in units of alat)
               a(1) = (   1.000000   0.000000   0.000000 )  
               a(2) = (   0.000000   1.000000   0.000000 )  
               a(3) = (   0.000000   0.000000   1.000000 )  

     reciprocal axes: (cart. coord. in units 2 pi/alat)
               b(1) = (  1.000000  0.000000  0.000000 )  
               b(2) = (  0.000000  1.000000  0.000000 )  
               b(3) = (  0.000000  0.000000  1.000000 )  


     PseudoPot. # 1 for Fe read from file:
     ./Fe.pbe-spn-kjpaw_psl.0.2.1.UPF
     MD5 check sum: e86618425769142926afa95317d90200
     Pseudo is Projector augmented-wave + core cor, Zval = 16.0
     Generated using "atomic" code by A. Dal Corso  v.5.0.99 svn rev. 10869
     Shape of augmentation charge: PSQ
     Using radial grid of 1191 points,  6 beta functions with: 
                l(1) =   0
                l(2) =   0
                l(3) =   1
                l(4) =   1
                l(5) =   2
                l(6) =   2
     Q(r) pseudized with 0 coefficients 


     PseudoPot. # 2 for Ti read from file:
     ./Ti_pbe_v1.4.uspp.F.UPF
     MD5 check sum: 88a00a6731bd790ddea75d31a80cb452
     Pseudo is Ultrasoft + core correction, Zval = 12.0
     Generated by new atomic code, or converted to UPF format
     Using radial grid of  851 points,  6 beta functions with: 
                l(1) =   0
                l(2) =   0
                l(3) =   1
                l(4) =   1
                l(5) =   2
                l(6) =   2
     Q(r) pseudized with  6 coefficients,  rinner =    1.000   1.000   1.000
                                                       1.000   1.000

     atomic species   valence    mass     pseudopotential
     Fe               16.00    55.84500     Fe( 1.00)
     Ti               12.00    47.86700     Ti( 1.00)

     48 Sym. Ops., with inversion, found



   Cartesian axes

     site n.     atom                  positions (alat units)
         1        Fe     tau(   1) = (   0.5000000   0.5000000   0.5000000  )
         2        Ti     tau(   2) = (   0.0000000   0.0000000   0.0000000  )

     number of k points=    35  Marzari-Vanderbilt smearing, width (Ry)=  0.0050
                       cart. coord. in units 2pi/alat
        k(    1) = (   0.0000000   0.0000000   0.0000000), wk =   0.0027435
        k(    2) = (   0.0000000   0.0000000   0.1111111), wk =   0.0164609
        k(    3) = (   0.0000000   0.0000000   0.2222222), wk =   0.0164609
        k(    4) = (   0.0000000   0.0000000   0.3333333), wk =   0.0164609
        k(    5) = (   0.0000000   0.0000000   0.4444444), wk =   0.0164609
        k(    6) = (   0.0000000   0.1111111   0.1111111), wk =   0.0329218
        k(    7) = (   0.0000000   0.1111111   0.2222222), wk =   0.0658436
        k(    8) = (   0.0000000   0.1111111   0.3333333), wk =   0.0658436
        k(    9) = (   0.0000000   0.1111111   0.4444444), wk =   0.0658436
        k(   10) = (   0.0000000   0.2222222   0.2222222), wk =   0.0329218
        k(   11) = (   0.0000000   0.2222222   0.3333333), wk =   0.0658436
        k(   12) = (   0.0000000   0.2222222   0.4444444), wk =   0.0658436
        k(   13) = (   0.0000000   0.3333333   0.3333333), wk =   0.0329218
        k(   14) = (   0.0000000   0.3333333   0.4444444), wk =   0.0658436
        k(   15) = (   0.0000000   0.4444444   0.4444444), wk =   0.0329218
        k(   16) = (   0.1111111   0.1111111   0.1111111), wk =   0.0219479
        k(   17) = (   0.1111111   0.1111111   0.2222222), wk =   0.0658436
        k(   18) = (   0.1111111   0.1111111   0.3333333), wk =   0.0658436
        k(   19) = (   0.1111111   0.1111111   0.4444444), wk =   0.0658436
        k(   20) = (   0.1111111   0.2222222   0.2222222), wk =   0.0658436
        k(   21) = (   0.1111111   0.2222222   0.3333333), wk =   0.1316872
        k(   22) = (   0.1111111   0.2222222   0.4444444), wk =   0.1316872
        k(   23) = (   0.1111111   0.3333333   0.3333333), wk =   0.0658436
        k(   24) = (   0.1111111   0.3333333   0.4444444), wk =   0.1316872
        k(   25) = (   0.1111111   0.4444444   0.4444444), wk =   0.0658436
        k(   26) = (   0.2222222   0.2222222   0.2222222), wk =   0.0219479
        k(   27) = (   0.2222222   0.2222222   0.3333333), wk =   0.0658436
        k(   28) = (   0.2222222   0.2222222   0.4444444), wk =   0.0658436
        k(   29) = (   0.2222222   0.3333333   0.3333333), wk =   0.0658436
        k(   30) = (   0.2222222   0.3333333   0.4444444), wk =   0.1316872
        k(   31) = (   0.2222222   0.4444444   0.4444444), wk =   0.0658436
        k(   32) = (   0.3333333   0.3333333   0.3333333), wk =   0.0219479
        k(   33) = (   0.3333333   0.3333333   0.4444444), wk =   0.0658436
        k(   34) = (   0.3333333   0.4444444   0.4444444), wk =   0.0658436
        k(   35) = (   0.4444444   0.4444444   0.4444444), wk =   0.0219479

     Dense  grid:    18949 G-vectors     FFT dimensions: (  36,  36,  36)

     Smooth grid:    13517 G-vectors     FFT dimensions: (  30,  30,  30)

     Estimated max dynamical RAM per process >       9.36 MB

     Estimated total dynamical RAM >     145.14 MB

     Check: negative core charge=   -0.000106

     Initial potential from superposition of free atoms

     starting charge      26.9995, renormalised to      28.0000

     negative rho (up, down):  8.355E-04 0.000E+00
     Starting wfcs are   23 randomized atomic wfcs
     Checking if some PAW data can be deallocated... 

     total cpu time spent up to now is        0.8 secs

     per-process dynamical memory:   117.3 Mb

     Self-consistent Calculation

     iteration #  1     ecut=    70.00 Ry     beta= 0.70
     Davidson diagonalization with overlap
     ethr =  1.00E-02,  avg # of iterations =  2.1

     negative rho (up, down):  5.752E-04 0.000E+00

     total cpu time spent up to now is        0.9 secs

     WARNING: integrated charge=    28.00077385, expected=    28.00000000

     total energy              =    -434.89510681 Ry
     estimated scf accuracy    <      17.45697797 Ry

     iteration #  2     ecut=    70.00 Ry     beta= 0.70
     Davidson diagonalization with overlap
     ethr =  1.00E-02,  avg # of iterations =  6.0

     negative rho (up, down):  1.942E-04 0.000E+00

     total cpu time spent up to now is        1.2 secs

     WARNING: integrated charge=    28.00059021, expected=    28.00000000

     total energy              =    -448.55949971 Ry
     estimated scf accuracy    <      65.85663255 Ry

     iteration #  3     ecut=    70.00 Ry     beta= 0.70
     Davidson diagonalization with overlap
     ethr =  1.00E-02,  avg # of iterations =  3.1

     negative rho (up, down):  4.106E-04 0.000E+00

     total cpu time spent up to now is        1.4 secs

     WARNING: integrated charge=    28.00047076, expected=    28.00000000

     total energy              =    -448.58310765 Ry
     estimated scf accuracy    <      16.78151108 Ry

     iteration #  4     ecut=    70.00 Ry     beta= 0.70
     Davidson diagonalization with overlap
     ethr =  1.00E-02,  avg # of iterations =  2.2

     negative rho (up, down):  4.255E-04 0.000E+00

     total cpu time spent up to now is        1.6 secs

     WARNING: integrated charge=    28.00045863, expected=    28.00000000

     total energy              =    -449.11015228 Ry
     estimated scf accuracy    <       4.68157165 Ry

     iteration #  5     ecut=    70.00 Ry     beta= 0.70
     Davidson diagonalization with overlap
     ethr =  1.00E-02,  avg # of iterations =  1.0

     negative rho (up, down):  4.399E-04 0.000E+00

     total cpu time spent up to now is        1.7 secs

     WARNING: integrated charge=    28.00044371, expected=    28.00000000

     total energy              =    -449.12527212 Ry
     estimated scf accuracy    <       4.29670300 Ry

     iteration #  6     ecut=    70.00 Ry     beta= 0.70
     Davidson diagonalization with overlap
     ethr =  1.00E-02,  avg # of iterations =  1.0

     negative rho (up, down):  7.408E-04 0.000E+00

     total cpu time spent up to now is        1.8 secs

     WARNING: integrated charge=    28.00021824, expected=    28.00000000

     total energy              =    -447.89418457 Ry
     estimated scf accuracy    <       4.46092059 Ry

     iteration #  7     ecut=    70.00 Ry     beta= 0.70
     Davidson diagonalization with overlap
     ethr =  1.00E-02,  avg # of iterations =  3.4

     negative rho (up, down):  6.829E-04 0.000E+00

     total cpu time spent up to now is        2.0 secs

     WARNING: integrated charge=    28.00017154, expected=    28.00000000

     total energy              =    -448.43462717 Ry
     estimated scf accuracy    <       3.91921724 Ry

     iteration #  8     ecut=    70.00 Ry     beta= 0.70
     Davidson diagonalization with overlap
     ethr =  1.00E-02,  avg # of iterations =  1.0

     negative rho (up, down):  6.276E-04 0.000E+00

     total cpu time spent up to now is        2.2 secs

     WARNING: integrated charge=    28.00015387, expected=    28.00000000

     total energy              =    -448.54750893 Ry
     estimated scf accuracy    <       0.20538614 Ry

     iteration #  9     ecut=    70.00 Ry     beta= 0.70
     Davidson diagonalization with overlap
     ethr =  7.34E-04,  avg # of iterations =  3.1
     Minimization algorithm failed to find Fermi energy: reverting to bisection
     Possible cause: smearing is larger than the electronic band-gap.

     negative rho (up, down):  6.275E-04 0.000E+00

     total cpu time spent up to now is        2.3 secs

     WARNING: integrated charge=    28.00015246, expected=    28.00000000

     total energy              =    -448.60559005 Ry
     estimated scf accuracy    <       0.16756829 Ry

     iteration # 10     ecut=    70.00 Ry     beta= 0.70
     Davidson diagonalization with overlap
     ethr =  5.98E-04,  avg # of iterations =  1.2

     negative rho (up, down):  6.292E-04 0.000E+00

     total cpu time spent up to now is        2.5 secs

     WARNING: integrated charge=    28.00011080, expected=    28.00000000

     total energy              =    -448.62381402 Ry
     estimated scf accuracy    <       0.31937175 Ry

     iteration # 11     ecut=    70.00 Ry     beta= 0.70
     Davidson diagonalization with overlap
     ethr =  5.98E-04,  avg # of iterations =  1.2

     negative rho (up, down):  6.184E-04 0.000E+00

     total cpu time spent up to now is        2.6 secs

     WARNING: integrated charge=    28.00008493, expected=    28.00000000

     total energy              =    -448.46810686 Ry
     estimated scf accuracy    <       0.68763984 Ry

     iteration # 12     ecut=    70.00 Ry     beta= 0.70
     Davidson diagonalization with overlap
     ethr =  5.98E-04,  avg # of iterations =  4.1

     negative rho (up, down):  6.125E-04 0.000E+00

     total cpu time spent up to now is        2.8 secs

     WARNING: integrated charge=    28.00006396, expected=    28.00000000

     total energy              =    -448.48443083 Ry
     estimated scf accuracy    <       1.38250356 Ry

     iteration # 13     ecut=    70.00 Ry     beta= 0.70
     Davidson diagonalization with overlap
     ethr =  5.98E-04,  avg # of iterations =  3.8

     negative rho (up, down):  5.507E-04 0.000E+00

     total cpu time spent up to now is        3.0 secs

     WARNING: integrated charge=    28.00000309, expected=    28.00000000

     total energy              =    -448.62677355 Ry
     estimated scf accuracy    <       0.13809202 Ry

     iteration # 14     ecut=    70.00 Ry     beta= 0.70
     Davidson diagonalization with overlap
     ethr =  4.93E-04,  avg # of iterations =  1.1

     negative rho (up, down):  4.594E-04 0.000E+00

     total cpu time spent up to now is        3.1 secs

     WARNING: integrated charge=    28.00005268, expected=    28.00000000

     total energy              =    -448.72632686 Ry
     estimated scf accuracy    <       0.29986429 Ry

     iteration # 15     ecut=    70.00 Ry     beta= 0.70
     Davidson diagonalization with overlap
     ethr =  4.93E-04,  avg # of iterations =  2.3

     negative rho (up, down):  6.590E-04 0.000E+00

     total cpu time spent up to now is        3.3 secs

     WARNING: integrated charge=    28.00002089, expected=    28.00000000

     total energy              =    -448.52211944 Ry
     estimated scf accuracy    <       1.12085927 Ry

     iteration # 16     ecut=    70.00 Ry     beta= 0.70
     Davidson diagonalization with overlap
     ethr =  4.93E-04,  avg # of iterations =  3.8

     negative rho (up, down):  6.289E-04 0.000E+00

     total cpu time spent up to now is        3.4 secs

     WARNING: integrated charge=    27.99999368, expected=    28.00000000

     total energy              =    -448.59398546 Ry
     estimated scf accuracy    <       0.05081113 Ry

     iteration # 17     ecut=    70.00 Ry     beta= 0.70
     Davidson diagonalization with overlap
     ethr =  1.81E-04,  avg # of iterations =  1.1

     negative rho (up, down):  7.134E-04 0.000E+00

     total cpu time spent up to now is        3.6 secs

     WARNING: integrated charge=    28.00002147, expected=    28.00000000

     total energy              =    -448.56518889 Ry
     estimated scf accuracy    <       0.15083545 Ry

     iteration # 18     ecut=    70.00 Ry     beta= 0.70
     Davidson diagonalization with overlap
     ethr =  1.81E-04,  avg # of iterations =  3.7

     negative rho (up, down):  6.318E-04 0.000E+00

     total cpu time spent up to now is        3.8 secs

     WARNING: integrated charge=    28.00000383, expected=    28.00000000

     total energy              =    -448.58055363 Ry
     estimated scf accuracy    <       0.01492594 Ry

     iteration # 19     ecut=    70.00 Ry     beta= 0.70
     Davidson diagonalization with overlap
     ethr =  5.33E-05,  avg # of iterations =  3.9

     negative rho (up, down):  7.106E-04 0.000E+00

     total cpu time spent up to now is        4.0 secs

     total energy              =    -448.57080396 Ry
     estimated scf accuracy    <       0.08258215 Ry

     iteration # 20     ecut=    70.00 Ry     beta= 0.70
     Davidson diagonalization with overlap
     ethr =  5.33E-05,  avg # of iterations =  4.1

     negative rho (up, down):  7.165E-04 0.000E+00

     total cpu time spent up to now is        4.1 secs

     WARNING: integrated charge=    27.99999546, expected=    28.00000000

     total energy              =    -448.58332145 Ry
     estimated scf accuracy    <       0.01353824 Ry

     iteration # 21     ecut=    70.00 Ry     beta= 0.70
     Davidson diagonalization with overlap
     ethr =  4.84E-05,  avg # of iterations =  1.1

     negative rho (up, down):  7.083E-04 0.000E+00

     total cpu time spent up to now is        4.3 secs

     WARNING: integrated charge=    27.99999635, expected=    28.00000000

     total energy              =    -448.58269599 Ry
     estimated scf accuracy    <       0.01622794 Ry

     iteration # 22     ecut=    70.00 Ry     beta= 0.70
     Davidson diagonalization with overlap
     ethr =  4.84E-05,  avg # of iterations =  1.0

     negative rho (up, down):  6.980E-04 0.000E+00

     total cpu time spent up to now is        4.4 secs

     total energy              =    -448.58177049 Ry
     estimated scf accuracy    <       0.00692773 Ry

     iteration # 23     ecut=    70.00 Ry     beta= 0.70
     Davidson diagonalization with overlap
     ethr =  2.47E-05,  avg # of iterations =  1.8

     negative rho (up, down):  6.964E-04 0.000E+00

     total cpu time spent up to now is        4.6 secs

     total energy              =    -448.58221788 Ry
     estimated scf accuracy    <       0.00005144 Ry

     iteration # 24     ecut=    70.00 Ry     beta= 0.70
     Davidson diagonalization with overlap
     ethr =  1.84E-07,  avg # of iterations =  5.3

     negative rho (up, down):  6.967E-04 0.000E+00

     total cpu time spent up to now is        4.8 secs

     total energy              =    -448.58227608 Ry
     estimated scf accuracy    <       0.00009145 Ry

     iteration # 25     ecut=    70.00 Ry     beta= 0.70
     Davidson diagonalization with overlap
     ethr =  1.84E-07,  avg # of iterations =  1.0

     negative rho (up, down):  6.973E-04 0.000E+00

     total cpu time spent up to now is        4.9 secs

     total energy              =    -448.58226809 Ry
     estimated scf accuracy    <       0.00005475 Ry

     iteration # 26     ecut=    70.00 Ry     beta= 0.70
     Davidson diagonalization with overlap
     ethr =  1.84E-07,  avg # of iterations =  1.8

     negative rho (up, down):  6.971E-04 0.000E+00

     total cpu time spent up to now is        5.1 secs

     total energy              =    -448.58227266 Ry
     estimated scf accuracy    <       0.00000207 Ry

     iteration # 27     ecut=    70.00 Ry     beta= 0.70
     Davidson diagonalization with overlap
     ethr =  7.38E-09,  avg # of iterations =  3.4

     negative rho (up, down):  6.970E-04 0.000E+00

     total cpu time spent up to now is        5.2 secs

     total energy              =    -448.58227299 Ry
     estimated scf accuracy    <       0.00000077 Ry

     iteration # 28     ecut=    70.00 Ry     beta= 0.70
     Davidson diagonalization with overlap
     ethr =  2.76E-09,  avg # of iterations =  2.0

     negative rho (up, down):  6.965E-04 0.000E+00

     total cpu time spent up to now is        5.4 secs

     total energy              =    -448.58227275 Ry
     estimated scf accuracy    <       0.00000128 Ry

     iteration # 29     ecut=    70.00 Ry     beta= 0.70
     Davidson diagonalization with overlap
     ethr =  2.76E-09,  avg # of iterations =  3.0

     negative rho (up, down):  6.965E-04 0.000E+00

     total cpu time spent up to now is        5.5 secs

     total energy              =    -448.58227292 Ry
     estimated scf accuracy    <       0.00000100 Ry

     iteration # 30     ecut=    70.00 Ry     beta= 0.70
     Davidson diagonalization with overlap
     ethr =  2.76E-09,  avg # of iterations =  1.0

     negative rho (up, down):  6.965E-04 0.000E+00

     total cpu time spent up to now is        5.7 secs

     total energy              =    -448.58227295 Ry
     estimated scf accuracy    <       0.00000008 Ry

     iteration # 31     ecut=    70.00 Ry     beta= 0.70
     Davidson diagonalization with overlap
     ethr =  2.76E-10,  avg # of iterations =  3.2

     negative rho (up, down):  6.965E-04 0.000E+00

     total cpu time spent up to now is        5.9 secs

     End of self-consistent calculation

          k = 0.0000 0.0000 0.0000 (  1743 PWs)   bands (ev):

   -69.2060 -39.1379 -35.2612 -35.2612 -35.2612 -15.2324 -15.2324 -15.2324
    10.1574  13.8721  13.8721  16.6595  16.6595  16.6595  19.0105  19.0105
    20.9474  20.9474

          k = 0.0000 0.0000 0.1111 (  1731 PWs)   bands (ev):

   -69.2055 -39.1348 -35.2645 -35.2605 -35.2605 -15.2755 -15.2298 -15.2298
    10.4149  13.9961  14.0042  16.6410  16.6410  16.7155  18.8532  19.0683
    20.5854  20.5854

          k = 0.0000 0.0000 0.2222 (  1699 PWs)   bands (ev):

   -69.2045 -39.1268 -35.2732 -35.2585 -35.2585 -15.3836 -15.2232 -15.2232
    11.1492  14.3191  14.3542  16.6044  16.6044  16.8667  18.4077  19.1724
    19.8213  19.8213

          k = 0.0000 0.0000 0.3333 (  1703 PWs)   bands (ev):

   -69.2033 -39.1178 -35.2840 -35.2569 -35.2569 -15.5046 -15.2158 -15.2158
    12.2409  14.5685  14.8946  16.5863  16.5863  17.0588  17.7631  19.0779
    19.0946  19.0946

          k = 0.0000 0.0000 0.4444 (  1698 PWs)   bands (ev):

   -69.2025 -39.1119 -35.2905 -35.2558 -35.2558 -15.5825 -15.2109 -15.2109
    13.4433  14.3659  15.4498  16.5946  16.5946  17.1373  17.1999  18.6594
    18.6594  18.6975

          k = 0.0000 0.1111 0.1111 (  1705 PWs)   bands (ev):

   -69.2051 -39.1313 -35.2656 -35.2620 -35.2596 -15.2767 -15.2679 -15.2270
    10.6645  14.1082  14.1402  16.5194  16.6057  16.8482  18.8422  19.0266
    20.2183  20.2265

          k = 0.0000 0.1111 0.2222 (  1707 PWs)   bands (ev):

   -69.2041 -39.1227 -35.2743 -35.2625 -35.2582 -15.3793 -15.2639 -15.2201
    11.3728  14.3967  14.4949  16.4110  16.5271  16.9734  18.5271  19.1132
    19.5232  19.6263

          k = 0.0000 0.1111 0.3333 (  1709 PWs)   bands (ev):

   -69.2029 -39.1129 -35.2851 -35.2620 -35.2565 -15.4984 -15.2549 -15.2121
    12.4135  14.6372  14.9759  16.3795  16.4508  16.9758  18.0254  18.7354
    19.2040  19.2994

          k = 0.0000 0.1111 0.4444 (  1690 PWs)   bands (ev):

   -69.2021 -39.1065 -35.2917 -35.2613 -35.2552 -15.5752 -15.2491 -15.2069
    13.5351  14.4238  15.4586  16.3732  16.4260  16.8581  17.6167  18.3392
    19.0660  19.1295

          k = 0.0000 0.2222 0.2222 (  1705 PWs)   bands (ev):

   -69.2031 -39.1123 -35.2783 -35.2704 -35.2568 -15.3773 -15.3568 -15.2120
    11.9909  14.5236  14.9128  16.1665  16.3902  16.9227  18.6865  18.9326
    19.0840  19.4491

          k = 0.0000 0.2222 0.3333 (  1685 PWs)   bands (ev):

   -69.2019 -39.1004 -35.2878 -35.2737 -35.2550 -15.4828 -15.3529 -15.2028
    12.8403  14.5650  15.4226  16.0302  16.3585  16.6303  18.4571  18.5727
    19.2792  19.5548

          k = 0.0000 0.2222 0.4444 (  1686 PWs)   bands (ev):

   -69.2011 -39.0926 -35.2953 -35.2753 -35.2539 -15.5565 -15.3447 -15.1967
    13.6391  14.3522  15.7770  16.0506  16.3077  16.5302  18.1688  18.3887
    19.4504  19.7760

          k = 0.0000 0.3333 0.3333 (  1682 PWs)   bands (ev):

   -69.2007 -39.0861 -35.2928 -35.2862 -35.2533 -15.4718 -15.4561 -15.1921
    13.2824  14.3461  15.7733  16.0906  16.1887  16.6032  18.5058  18.9589
    19.1384  20.0132

          k = 0.0000 0.3333 0.4444 (  1680 PWs)   bands (ev):

   -69.2000 -39.0767 -35.2994 -35.2912 -35.2523 -15.5353 -15.4519 -15.1851
    13.5482  14.1341  15.7005  15.8502  16.5475  17.2619  18.2660  19.0252
    19.3998  20.4044

          k = 0.0000 0.4444 0.4444 (  1684 PWs)   bands (ev):

   -69.1992 -39.0664 -35.3025 -35.3014 -35.2514 -15.5225 -15.5201 -15.1776
    13.4159  13.9885  15.5231  15.5738  17.4220  17.9047  18.6645  18.9119
    19.4015  20.7947

          k = 0.1111 0.1111 0.1111 (  1704 PWs)   bands (ev):

   -69.2047 -39.1277 -35.2651 -35.2651 -35.2605 -15.2767 -15.2652 -15.2652
    10.9080  14.2455  14.2455  16.4808  16.4808  16.9303  18.9250  18.9250
    19.6917  20.5539

          k = 0.1111 0.1111 0.2222 (  1693 PWs)   bands (ev):

   -69.2037 -39.1185 -35.2745 -35.2633 -35.2607 -15.3749 -15.2624 -15.2585
    11.5957  14.5451  14.5666  16.3331  16.3824  16.9315  18.6386  19.0618
    19.2980  19.7910

          k = 0.1111 0.1111 0.3333 (  1702 PWs)   bands (ev):

   -69.2025 -39.1080 -35.2858 -35.2620 -35.2610 -15.4925 -15.2516 -15.2509
    12.5950  14.7848  14.9812  16.2504  16.3085  16.7806  18.2397  18.8332
    19.0932  19.4748

          k = 0.1111 0.1111 0.4444 (  1700 PWs)   bands (ev):

   -69.2018 -39.1011 -35.2929 -35.2611 -35.2610 -15.5683 -15.2459 -15.2445
    13.6512  14.5291  15.4085  16.0878  16.4640  16.6549  17.9112  18.4499
    18.6982  19.7809

          k = 0.1111 0.2222 0.2222 (  1699 PWs)   bands (ev):

   -69.2027 -39.1078 -35.2777 -35.2711 -35.2611 -15.3719 -15.3540 -15.2517
    12.2103  14.6914  14.9630  16.1085  16.2312  16.6639  18.7858  19.0618
    19.1828  19.5695

          k = 0.1111 0.2222 0.3333 (  1690 PWs)   bands (ev):

   -69.2015 -39.0956 -35.2879 -35.2738 -35.2602 -15.4777 -15.3493 -15.2419
    13.0464  14.7532  15.3872  15.9591  16.1855  16.3777  18.6661  18.7133
    19.1697  19.8295

          k = 0.1111 0.2222 0.4444 (  1694 PWs)   bands (ev):

   -69.2007 -39.0876 -35.2959 -35.2749 -35.2595 -15.5510 -15.3411 -15.2353
    13.8147  14.5287  15.6011  15.8920  16.2205  16.5014  18.2784  18.5510
    18.9404  20.4614

          k = 0.1111 0.3333 0.3333 (  1693 PWs)   bands (ev):

   -69.2004 -39.0814 -35.2922 -35.2866 -35.2589 -15.4668 -15.4533 -15.2311
    13.5038  14.5289  15.7237  15.9998  16.0540  16.3723  18.5419  19.0310
    19.1262  20.3758

          k = 0.1111 0.3333 0.4444 (  1687 PWs)   bands (ev):

   -69.1996 -39.0721 -35.2992 -35.2906 -35.2580 -15.5313 -15.4487 -15.2241
    13.7512  14.3212  15.6440  15.7438  16.4542  17.0336  18.2572  18.9315
    19.2100  20.7278

          k = 0.1111 0.4444 0.4444 (  1683 PWs)   bands (ev):

   -69.1989 -39.0620 -35.3015 -35.3008 -35.2569 -15.5193 -15.5172 -15.2167
    13.6198  14.1776  15.4898  15.5308  17.3198  17.6514  18.3938  18.4884
    19.5202  20.9994

          k = 0.2222 0.2222 0.2222 (  1698 PWs)   bands (ev):

   -69.2016 -39.0964 -35.2762 -35.2762 -35.2694 -15.3626 -15.3470 -15.3470
    12.8073  15.0960  15.0960  15.9649  15.9649  16.1358  18.9821  18.9821
    19.7366  19.8044

          k = 0.2222 0.2222 0.3333 (  1691 PWs)   bands (ev):

   -69.2005 -39.0834 -35.2883 -35.2743 -35.2725 -15.4649 -15.3408 -15.3389
    13.5786  15.2151  15.2632  15.8005  15.8795  15.9785  18.8164  18.8462
    19.2764  20.2095

          k = 0.2222 0.2222 0.4444 (  1694 PWs)   bands (ev):

   -69.1998 -39.0749 -35.2971 -35.2738 -35.2732 -15.5370 -15.3337 -15.3305
    14.1943  14.8300  15.3987  15.6739  16.0214  16.3903  18.3232  18.6345
    19.0650  20.5615

          k = 0.2222 0.3333 0.3333 (  1685 PWs)   bands (ev):

   -69.1993 -39.0695 -35.2902 -35.2870 -35.2724 -15.4541 -15.4461 -15.3290
    14.1144  14.9658  15.6088  15.6592  15.8788  15.9378  18.5866  18.7382
    19.5892  20.3163

          k = 0.2222 0.3333 0.4444 (  1693 PWs)   bands (ev):

   -69.1986 -39.0605 -35.2986 -35.2892 -35.2719 -15.5211 -15.4407 -15.3218
    14.3010  14.7592  15.5206  15.5653  16.1377  16.5664  18.2143  18.5184
    19.6356  20.6992

          k = 0.2222 0.4444 0.4444 (  1695 PWs)   bands (ev):

   -69.1979 -39.0510 -35.2997 -35.2993 -35.2710 -15.5113 -15.5101 -15.3151
    14.1875  14.6482  15.4204  15.4503  16.8911  16.9112  18.0497  18.2503
    19.9162  21.0545

          k = 0.3333 0.3333 0.3333 (  1709 PWs)   bands (ev):

   -69.1983 -39.0560 -35.2886 -35.2886 -35.2873 -15.4405 -15.4380 -15.4380
    14.8482  15.1320  15.5045  15.5045  15.7548  15.7548  18.4507  18.4507
    20.2378  20.2378

          k = 0.3333 0.3333 0.4444 (  1702 PWs)   bands (ev):

   -69.1975 -39.0471 -35.2980 -35.2880 -35.2872 -15.5096 -15.4326 -15.4302
    14.8673  15.0699  15.4825  15.5763  15.8006  16.2313  18.0870  18.3052
    20.2312  20.7896

          k = 0.3333 0.4444 0.4444 (  1689 PWs)   bands (ev):

   -69.1968 -39.0384 -35.2975 -35.2974 -35.2863 -15.5022 -15.5020 -15.4253
    14.9384  15.1370  15.3883  15.4803  16.2028  16.2784  17.9217  18.1145
    20.5454  21.0979

          k = 0.4444 0.4444 0.4444 (  1688 PWs)   bands (ev):

   -69.1960 -39.0302 -35.2963 -35.2961 -35.2961 -15.4966 -15.4966 -15.4961
    15.2800  15.4661  15.4661  15.8043  15.8043  15.8112  17.8934  17.8934
    21.1243  21.1243

     the Fermi energy is    17.6551 ev

!    total energy              =    -448.58227296 Ry
     estimated scf accuracy    <          9.9E-10 Ry
     smearing contrib. (-TS)   =      -0.00007465 Ry
     internal energy E=F+TS    =    -448.58219830 Ry

     The total energy is F=E-TS. E is the sum of the following terms:
     one-electron contribution =    -151.35011744 Ry
     hartree contribution      =      91.63161140 Ry
     xc contribution           =     -52.89021457 Ry
     ewald contribution        =    -259.82070277 Ry
     one-center paw contrib.   =     -76.15277492 Ry

     convergence has been achieved in  31 iterations

     negative rho (up, down):  6.965E-04 0.000E+00

     Forces acting on atoms (cartesian axes, Ry/au):

     atom    1 type  1   force =     0.00000000    0.00000000    0.00000000
     atom    2 type  2   force =     0.00000000    0.00000000    0.00000000

     Total force =     0.000000     Total SCF correction =     0.000000


     Computing stress (Cartesian axis) and pressure


     negative rho (up, down):  6.965E-04 0.000E+00
          total   stress  (Ry/bohr**3)                   (kbar)     P=       23.85
   0.00016216   0.00000000   0.00000000           23.85        0.00        0.00
   0.00000000   0.00016216   0.00000000            0.00       23.85        0.00
   0.00000000   0.00000000   0.00016216            0.00        0.00       23.85


     Writing all to output data dir ./TiFe.save/ :
     XML data file, charge density, pseudopotentials, collected wavefunctions

     init_run     :      0.55s CPU      0.57s WALL (       1 calls)
     electrons    :      4.85s CPU      5.11s WALL (       1 calls)
     forces       :      0.02s CPU      0.02s WALL (       1 calls)
     stress       :      0.08s CPU      0.09s WALL (       1 calls)

     Called by init_run:
     wfcinit      :      0.04s CPU      0.05s WALL (       1 calls)
     potinit      :      0.19s CPU      0.20s WALL (       1 calls)
     hinit0       :      0.29s CPU      0.30s WALL (       1 calls)

     Called by electrons:
     c_bands      :      2.85s CPU      2.96s WALL (      31 calls)
     sum_band     :      0.60s CPU      0.61s WALL (      31 calls)
     v_of_rho     :      0.07s CPU      0.07s WALL (      32 calls)
     newd         :      0.17s CPU      0.19s WALL (      32 calls)
     PAW_pot      :      1.16s CPU      1.24s WALL (      32 calls)
     mix_rho      :      0.02s CPU      0.02s WALL (      31 calls)

     Called by c_bands:
     init_us_2    :      0.07s CPU      0.07s WALL (    1170 calls)
     cegterg      :      2.59s CPU      2.69s WALL (     558 calls)

     Called by *egterg:
     cdiaghg      :      0.54s CPU      0.56s WALL (    1972 calls)
     h_psi        :      1.73s CPU      1.80s WALL (    1990 calls)
     s_psi        :      0.05s CPU      0.05s WALL (    1990 calls)
     g_psi        :      0.01s CPU      0.01s WALL (    1414 calls)

     Called by h_psi:
     h_psi:calbec :      0.10s CPU      0.10s WALL (    1990 calls)
     vloc_psi     :      1.57s CPU      1.64s WALL (    1990 calls)
     add_vuspsi   :      0.05s CPU      0.05s WALL (    1990 calls)

     General routines
     calbec       :      0.14s CPU      0.15s WALL (    2854 calls)
     fft          :      0.27s CPU      0.27s WALL (     439 calls)
     ffts         :      0.15s CPU      0.15s WALL (      63 calls)
     fftw         :      1.67s CPU      1.74s WALL (   58316 calls)
     interpolate  :      0.15s CPU      0.16s WALL (      32 calls)

     Parallel routines

     PWSCF        :      5.71s CPU      6.64s WALL


   This run was terminated on:  10:39:20  28Oct2025            

=------------------------------------------------------------------------------=
   JOB DONE.
=------------------------------------------------------------------------------=
Note: The following floating-point exceptions are signalling: IEEE_UNDERFLOW_FLAG IEEE_DENORMAL
Note: The following floating-point exceptions are signalling: IEEE_UNDERFLOW_FLAG IEEE_DENORMAL
Note: The following floating-point exceptions are signalling: IEEE_UNDERFLOW_FLAG IEEE_DENORMAL
Note: The following floating-point exceptions are signalling: IEEE_UNDERFLOW_FLAG IEEE_DENORMAL
Note: The following floating-point exceptions are signalling: IEEE_UNDERFLOW_FLAG IEEE_DENORMAL
Note: The following floating-point exceptions are signalling: IEEE_UNDERFLOW_FLAG IEEE_DENORMAL
Note: The following floating-point exceptions are signalling: IEEE_UNDERFLOW_FLAG IEEE_DENORMAL
Note: The following floating-point exceptions are signalling: IEEE_UNDERFLOW_FLAG IEEE_DENORMAL
Note: The following floating-point exceptions are signalling: IEEE_UNDERFLOW_FLAG IEEE_DENORMAL
Note: The following floating-point exceptions are signalling: IEEE_UNDERFLOW_FLAG IEEE_DENORMAL
Note: The following floating-point exceptions are signalling: IEEE_UNDERFLOW_FLAG IEEE_DENORMAL
Note: The following floating-point exceptions are signalling: IEEE_UNDERFLOW_FLAG IEEE_DENORMAL
Note: The following floating-point exceptions are signalling: IEEE_UNDERFLOW_FLAG IEEE_DENORMAL
Note: The following floating-point exceptions are signalling: IEEE_UNDERFLOW_FLAG IEEE_DENORMAL
Note: The following floating-point exceptions are signalling: IEEE_UNDERFLOW_FLAG IEEE_DENORMAL
Note: The following floating-point exceptions are signalling: IEEE_UNDERFLOW_FLAG IEEE_DENORMAL
