
     Program PWSCF v.7.4 starts on 28Oct2025 at 10:40:34 

     This program is part of the open-source Quantum ESPRESSO suite
     for quantum simulation of materials; please cite
         "P. Giannozzi et al., J. Phys.:Condens. Matter 21 395502 (2009);
         "P. Giannozzi et al., J. Phys.:Condens. Matter 29 465901 (2017);
         "P. Giannozzi et al., J. Chem. Phys. 152 154105 (2020);
          URL http://www.quantum-espresso.org", 
     in publications or presentations arising from this work. More details at
     http://www.quantum-espresso.org/quote

     Parallel version (MPI & OpenMP), running on      16 processor cores
     Number of MPI processes:                16
     Threads/MPI process:                     1

     MPI processes distributed on     1 nodes
     230571 MiB available memory on the printing compute node when the environment starts

     Reading input from TiFe_ecutwfc_convergence/TiFe2_ecut200.in

     Current dimensions of program PWSCF are:
     Max number of different atomic species (ntypx) = 10
     Max number of k-points (npk) =  40000
     Max angular momentum in pseudopotentials (lmaxx) =  4
     file Fe.pbe-spn-kjpaw_psl.0.2.1.UPF: wavefunction(s)  3D renormalized

     IMPORTANT: XC functional enforced from input :
     Exchange-correlation= PBE
                           (   1   4   3   4   0   0   0)
     Any further DFT definition will be discarded
     Please, verify this is what you really want

     Message from routine setup:
     using ibrav=0 with symmetry is DISCOURAGED, use correct ibrav instead

     R & G space division:  proc/nbgrp/npool/nimage =      16
     Subspace diagonalization in iterative solution of the eigenvalue problem:
     a serial algorithm will be used


     Parallelization info
     --------------------
     sticks:   dense  smooth     PW     G-vecs:    dense   smooth      PW
     Min         152     121     34                 5725     4067     610
     Max         154     122     35                 5728     4072     615
     Sum        2449    1941    553                91623    65117    9795

     Using Slab Decomposition



     bravais-lattice index     =            0
     lattice parameter (alat)  =       5.5533  a.u.
     unit-cell volume          =     171.2590 (a.u.)^3
     number of atoms/cell      =            2
     number of atomic types    =            2
     number of electrons       =        28.00
     number of Kohn-Sham states=           18
     kinetic-energy cutoff     =     200.0000  Ry
     charge density cutoff     =    1000.0000  Ry
     scf convergence threshold =      1.0E-08
     mixing beta               =       0.7000
     number of iterations used =            8  plain     mixing
     Exchange-correlation= PBE
                           (   1   4   3   4   0   0   0)

     celldm(1)=   5.553300  celldm(2)=   0.000000  celldm(3)=   0.000000
     celldm(4)=   0.000000  celldm(5)=   0.000000  celldm(6)=   0.000000

     crystal axes: (cart. coord. in units of alat)
               a(1) = (   1.000000   0.000000   0.000000 )  
               a(2) = (   0.000000   1.000000   0.000000 )  
               a(3) = (   0.000000   0.000000   1.000000 )  

     reciprocal axes: (cart. coord. in units 2 pi/alat)
               b(1) = (  1.000000  0.000000  0.000000 )  
               b(2) = (  0.000000  1.000000  0.000000 )  
               b(3) = (  0.000000  0.000000  1.000000 )  


     PseudoPot. # 1 for Fe read from file:
     ./Fe.pbe-spn-kjpaw_psl.0.2.1.UPF
     MD5 check sum: e86618425769142926afa95317d90200
     Pseudo is Projector augmented-wave + core cor, Zval = 16.0
     Generated using "atomic" code by A. Dal Corso  v.5.0.99 svn rev. 10869
     Shape of augmentation charge: PSQ
     Using radial grid of 1191 points,  6 beta functions with: 
                l(1) =   0
                l(2) =   0
                l(3) =   1
                l(4) =   1
                l(5) =   2
                l(6) =   2
     Q(r) pseudized with 0 coefficients 


     PseudoPot. # 2 for Ti read from file:
     ./Ti_pbe_v1.4.uspp.F.UPF
     MD5 check sum: 88a00a6731bd790ddea75d31a80cb452
     Pseudo is Ultrasoft + core correction, Zval = 12.0
     Generated by new atomic code, or converted to UPF format
     Using radial grid of  851 points,  6 beta functions with: 
                l(1) =   0
                l(2) =   0
                l(3) =   1
                l(4) =   1
                l(5) =   2
                l(6) =   2
     Q(r) pseudized with  6 coefficients,  rinner =    1.000   1.000   1.000
                                                       1.000   1.000

     atomic species   valence    mass     pseudopotential
     Fe               16.00    55.84500     Fe( 1.00)
     Ti               12.00    47.86700     Ti( 1.00)

     48 Sym. Ops., with inversion, found



   Cartesian axes

     site n.     atom                  positions (alat units)
         1        Fe     tau(   1) = (   0.5000000   0.5000000   0.5000000  )
         2        Ti     tau(   2) = (   0.0000000   0.0000000   0.0000000  )

     number of k points=    35  Marzari-Vanderbilt smearing, width (Ry)=  0.0050
                       cart. coord. in units 2pi/alat
        k(    1) = (   0.0000000   0.0000000   0.0000000), wk =   0.0027435
        k(    2) = (   0.0000000   0.0000000   0.1111111), wk =   0.0164609
        k(    3) = (   0.0000000   0.0000000   0.2222222), wk =   0.0164609
        k(    4) = (   0.0000000   0.0000000   0.3333333), wk =   0.0164609
        k(    5) = (   0.0000000   0.0000000   0.4444444), wk =   0.0164609
        k(    6) = (   0.0000000   0.1111111   0.1111111), wk =   0.0329218
        k(    7) = (   0.0000000   0.1111111   0.2222222), wk =   0.0658436
        k(    8) = (   0.0000000   0.1111111   0.3333333), wk =   0.0658436
        k(    9) = (   0.0000000   0.1111111   0.4444444), wk =   0.0658436
        k(   10) = (   0.0000000   0.2222222   0.2222222), wk =   0.0329218
        k(   11) = (   0.0000000   0.2222222   0.3333333), wk =   0.0658436
        k(   12) = (   0.0000000   0.2222222   0.4444444), wk =   0.0658436
        k(   13) = (   0.0000000   0.3333333   0.3333333), wk =   0.0329218
        k(   14) = (   0.0000000   0.3333333   0.4444444), wk =   0.0658436
        k(   15) = (   0.0000000   0.4444444   0.4444444), wk =   0.0329218
        k(   16) = (   0.1111111   0.1111111   0.1111111), wk =   0.0219479
        k(   17) = (   0.1111111   0.1111111   0.2222222), wk =   0.0658436
        k(   18) = (   0.1111111   0.1111111   0.3333333), wk =   0.0658436
        k(   19) = (   0.1111111   0.1111111   0.4444444), wk =   0.0658436
        k(   20) = (   0.1111111   0.2222222   0.2222222), wk =   0.0658436
        k(   21) = (   0.1111111   0.2222222   0.3333333), wk =   0.1316872
        k(   22) = (   0.1111111   0.2222222   0.4444444), wk =   0.1316872
        k(   23) = (   0.1111111   0.3333333   0.3333333), wk =   0.0658436
        k(   24) = (   0.1111111   0.3333333   0.4444444), wk =   0.1316872
        k(   25) = (   0.1111111   0.4444444   0.4444444), wk =   0.0658436
        k(   26) = (   0.2222222   0.2222222   0.2222222), wk =   0.0219479
        k(   27) = (   0.2222222   0.2222222   0.3333333), wk =   0.0658436
        k(   28) = (   0.2222222   0.2222222   0.4444444), wk =   0.0658436
        k(   29) = (   0.2222222   0.3333333   0.3333333), wk =   0.0658436
        k(   30) = (   0.2222222   0.3333333   0.4444444), wk =   0.1316872
        k(   31) = (   0.2222222   0.4444444   0.4444444), wk =   0.0658436
        k(   32) = (   0.3333333   0.3333333   0.3333333), wk =   0.0219479
        k(   33) = (   0.3333333   0.3333333   0.4444444), wk =   0.0658436
        k(   34) = (   0.3333333   0.4444444   0.4444444), wk =   0.0658436
        k(   35) = (   0.4444444   0.4444444   0.4444444), wk =   0.0219479

     Dense  grid:    91623 G-vectors     FFT dimensions: (  60,  60,  60)

     Smooth grid:    65117 G-vectors     FFT dimensions: (  50,  50,  50)

     Estimated max dynamical RAM per process >      31.50 MB

     Estimated total dynamical RAM >     503.99 MB

     Check: negative core charge=   -0.000007

     Initial potential from superposition of free atoms

     starting charge      26.9995, renormalised to      28.0000

     negative rho (up, down):  1.439E-03 0.000E+00
     Starting wfcs are   23 randomized atomic wfcs
     Checking if some PAW data can be deallocated... 

     total cpu time spent up to now is        1.2 secs

     per-process dynamical memory:   134.9 Mb

     Self-consistent Calculation

     iteration #  1     ecut=   200.00 Ry     beta= 0.70
     Davidson diagonalization with overlap
     ethr =  1.00E-02,  avg # of iterations =  2.1

     negative rho (up, down):  1.236E-04 0.000E+00

     total cpu time spent up to now is        1.8 secs

     WARNING: integrated charge=    28.00081129, expected=    28.00000000

     total energy              =    -434.86277793 Ry
     estimated scf accuracy    <      17.49384542 Ry

     iteration #  2     ecut=   200.00 Ry     beta= 0.70
     Davidson diagonalization with overlap
     ethr =  1.00E-02,  avg # of iterations =  6.1

     negative rho (up, down):  3.900E-05 0.000E+00

     total cpu time spent up to now is        2.8 secs

     WARNING: integrated charge=    28.00061891, expected=    28.00000000

     total energy              =    -448.51928806 Ry
     estimated scf accuracy    <      66.14544699 Ry

     iteration #  3     ecut=   200.00 Ry     beta= 0.70
     Davidson diagonalization with overlap
     ethr =  1.00E-02,  avg # of iterations =  3.2

     negative rho (up, down):  2.337E-04 0.000E+00

     total cpu time spent up to now is        3.5 secs

     WARNING: integrated charge=    28.00049355, expected=    28.00000000

     total energy              =    -448.59295426 Ry
     estimated scf accuracy    <      16.78593665 Ry

     iteration #  4     ecut=   200.00 Ry     beta= 0.70
     Davidson diagonalization with overlap
     ethr =  1.00E-02,  avg # of iterations =  2.1

     negative rho (up, down):  2.627E-04 0.000E+00

     total cpu time spent up to now is        4.1 secs

     WARNING: integrated charge=    28.00081782, expected=    28.00000000

     total energy              =    -449.10830151 Ry
     estimated scf accuracy    <       4.68767151 Ry

     iteration #  5     ecut=   200.00 Ry     beta= 0.70
     Davidson diagonalization with overlap
     ethr =  1.00E-02,  avg # of iterations =  1.0

     negative rho (up, down):  3.056E-04 0.000E+00

     total cpu time spent up to now is        4.6 secs

     WARNING: integrated charge=    27.99621376, expected=    28.00000000

     total energy              =    -449.10943266 Ry
     estimated scf accuracy    <       4.28622862 Ry

     iteration #  6     ecut=   200.00 Ry     beta= 0.70
     Davidson diagonalization with overlap
     ethr =  1.00E-02,  avg # of iterations =  1.1

     negative rho (up, down):  1.161E-03 0.000E+00

     total cpu time spent up to now is        5.1 secs

     WARNING: integrated charge=    27.98586405, expected=    28.00000000

     total energy              =    -447.92636112 Ry
     estimated scf accuracy    <       4.47858140 Ry

     iteration #  7     ecut=   200.00 Ry     beta= 0.70
     Davidson diagonalization with overlap
     ethr =  1.00E-02,  avg # of iterations =  3.3

     negative rho (up, down):  1.070E-03 0.000E+00

     total cpu time spent up to now is        5.7 secs

     WARNING: integrated charge=    27.98623015, expected=    28.00000000

     total energy              =    -448.62381532 Ry
     estimated scf accuracy    <       3.33059573 Ry

     iteration #  8     ecut=   200.00 Ry     beta= 0.70
     Davidson diagonalization with overlap
     ethr =  1.00E-02,  avg # of iterations =  1.0

     negative rho (up, down):  8.272E-04 0.000E+00

     total cpu time spent up to now is        6.3 secs

     WARNING: integrated charge=    27.98639279, expected=    28.00000000

     total energy              =    -448.43723848 Ry
     estimated scf accuracy    <       1.54753192 Ry

     iteration #  9     ecut=   200.00 Ry     beta= 0.70
     Davidson diagonalization with overlap
     ethr =  5.53E-03,  avg # of iterations =  1.8

     negative rho (up, down):  8.177E-04 0.000E+00

     total cpu time spent up to now is        6.8 secs

     WARNING: integrated charge=    27.98652603, expected=    28.00000000

     total energy              =    -448.59174979 Ry
     estimated scf accuracy    <       0.14637320 Ry

     iteration # 10     ecut=   200.00 Ry     beta= 0.70
     Davidson diagonalization with overlap
     ethr =  5.23E-04,  avg # of iterations =  2.2

     negative rho (up, down):  7.963E-04 0.000E+00

     total cpu time spent up to now is        7.3 secs

     WARNING: integrated charge=    27.98683897, expected=    28.00000000

     total energy              =    -448.62048730 Ry
     estimated scf accuracy    <       0.12162090 Ry

     iteration # 11     ecut=   200.00 Ry     beta= 0.70
     Davidson diagonalization with overlap
     ethr =  4.34E-04,  avg # of iterations =  2.8

     negative rho (up, down):  8.603E-04 0.000E+00

     total cpu time spent up to now is        7.9 secs

     WARNING: integrated charge=    27.98967430, expected=    28.00000000

     total energy              =    -448.63727392 Ry
     estimated scf accuracy    <       0.78205708 Ry

     iteration # 12     ecut=   200.00 Ry     beta= 0.70
     Davidson diagonalization with overlap
     ethr =  4.34E-04,  avg # of iterations =  1.2

     negative rho (up, down):  9.102E-04 0.000E+00

     total cpu time spent up to now is        8.4 secs

     WARNING: integrated charge=    27.98853961, expected=    28.00000000

     total energy              =    -448.62428274 Ry
     estimated scf accuracy    <       0.69831838 Ry

     iteration # 13     ecut=   200.00 Ry     beta= 0.70
     Davidson diagonalization with overlap
     ethr =  4.34E-04,  avg # of iterations =  1.0

     negative rho (up, down):  1.801E-03 0.000E+00

     total cpu time spent up to now is        8.9 secs

     WARNING: integrated charge=    27.99863689, expected=    28.00000000

     total energy              =    -448.90834080 Ry
     estimated scf accuracy    <       0.50365287 Ry

     iteration # 14     ecut=   200.00 Ry     beta= 0.70
     Davidson diagonalization with overlap
     ethr =  4.34E-04,  avg # of iterations =  4.1

     negative rho (up, down):  1.310E-03 0.000E+00

     total cpu time spent up to now is        9.7 secs

     WARNING: integrated charge=    27.99873324, expected=    28.00000000

     total energy              =    -448.48371571 Ry
     estimated scf accuracy    <       2.31060172 Ry

     iteration # 15     ecut=   200.00 Ry     beta= 0.70
     Davidson diagonalization with overlap
     ethr =  4.34E-04,  avg # of iterations =  4.9

     negative rho (up, down):  1.010E-03 0.000E+00

     total cpu time spent up to now is       10.5 secs

     WARNING: integrated charge=    27.99874499, expected=    28.00000000

     total energy              =    -448.55476034 Ry
     estimated scf accuracy    <       0.14124524 Ry

     iteration # 16     ecut=   200.00 Ry     beta= 0.70
     Davidson diagonalization with overlap
     ethr =  4.34E-04,  avg # of iterations =  2.9

     negative rho (up, down):  1.077E-03 0.000E+00

     total cpu time spent up to now is       11.1 secs

     WARNING: integrated charge=    27.99890507, expected=    28.00000000

     total energy              =    -448.58649262 Ry
     estimated scf accuracy    <       0.05060765 Ry

     iteration # 17     ecut=   200.00 Ry     beta= 0.70
     Davidson diagonalization with overlap
     ethr =  1.81E-04,  avg # of iterations =  1.4

     negative rho (up, down):  1.073E-03 0.000E+00

     total cpu time spent up to now is       11.7 secs

     WARNING: integrated charge=    27.99940586, expected=    28.00000000

     total energy              =    -448.58960637 Ry
     estimated scf accuracy    <       0.03271420 Ry

     iteration # 18     ecut=   200.00 Ry     beta= 0.70
     Davidson diagonalization with overlap
     ethr =  1.17E-04,  avg # of iterations =  1.7

     negative rho (up, down):  1.030E-03 0.000E+00

     total cpu time spent up to now is       12.2 secs

     WARNING: integrated charge=    27.99921012, expected=    28.00000000

     total energy              =    -448.58797902 Ry
     estimated scf accuracy    <       0.06847378 Ry

     iteration # 19     ecut=   200.00 Ry     beta= 0.70
     Davidson diagonalization with overlap
     ethr =  1.17E-04,  avg # of iterations =  1.0

     negative rho (up, down):  9.746E-04 0.000E+00

     total cpu time spent up to now is       12.7 secs

     WARNING: integrated charge=    27.99968070, expected=    28.00000000

     total energy              =    -448.58577924 Ry
     estimated scf accuracy    <       0.03797649 Ry

     iteration # 20     ecut=   200.00 Ry     beta= 0.70
     Davidson diagonalization with overlap
     ethr =  1.17E-04,  avg # of iterations =  1.2

     negative rho (up, down):  9.452E-04 0.000E+00

     total cpu time spent up to now is       13.2 secs

     WARNING: integrated charge=    27.99988772, expected=    28.00000000

     total energy              =    -448.58589699 Ry
     estimated scf accuracy    <       0.00600999 Ry

     iteration # 21     ecut=   200.00 Ry     beta= 0.70
     Davidson diagonalization with overlap
     ethr =  2.15E-05,  avg # of iterations =  3.2

     negative rho (up, down):  9.562E-04 0.000E+00

     total cpu time spent up to now is       13.8 secs

     WARNING: integrated charge=    27.99951519, expected=    28.00000000

     total energy              =    -448.58677554 Ry
     estimated scf accuracy    <       0.00436171 Ry

     iteration # 22     ecut=   200.00 Ry     beta= 0.70
     Davidson diagonalization with overlap
     ethr =  1.56E-05,  avg # of iterations =  1.0

     negative rho (up, down):  9.523E-04 0.000E+00

     total cpu time spent up to now is       14.3 secs

     WARNING: integrated charge=    27.99986524, expected=    28.00000000

     total energy              =    -448.58692202 Ry
     estimated scf accuracy    <       0.00159321 Ry

     iteration # 23     ecut=   200.00 Ry     beta= 0.70
     Davidson diagonalization with overlap
     ethr =  5.69E-06,  avg # of iterations =  1.4

     negative rho (up, down):  9.844E-04 0.000E+00

     total cpu time spent up to now is       14.8 secs

     WARNING: integrated charge=    27.99993870, expected=    28.00000000

     total energy              =    -448.58637506 Ry
     estimated scf accuracy    <       0.00250944 Ry

     iteration # 24     ecut=   200.00 Ry     beta= 0.70
     Davidson diagonalization with overlap
     ethr =  5.69E-06,  avg # of iterations =  2.5

     negative rho (up, down):  9.818E-04 0.000E+00

     total cpu time spent up to now is       15.4 secs

     WARNING: integrated charge=    27.99992780, expected=    28.00000000

     total energy              =    -448.58672033 Ry
     estimated scf accuracy    <       0.00021491 Ry

     iteration # 25     ecut=   200.00 Ry     beta= 0.70
     Davidson diagonalization with overlap
     ethr =  7.68E-07,  avg # of iterations =  4.8

     negative rho (up, down):  9.789E-04 0.000E+00

     total cpu time spent up to now is       16.0 secs

     WARNING: integrated charge=    27.99995665, expected=    28.00000000

     total energy              =    -448.58674969 Ry
     estimated scf accuracy    <       0.00010197 Ry

     iteration # 26     ecut=   200.00 Ry     beta= 0.70
     Davidson diagonalization with overlap
     ethr =  3.64E-07,  avg # of iterations =  1.5

     negative rho (up, down):  9.766E-04 0.000E+00

     total cpu time spent up to now is       16.5 secs

     WARNING: integrated charge=    27.99999267, expected=    28.00000000

     total energy              =    -448.58675087 Ry
     estimated scf accuracy    <       0.00001658 Ry

     iteration # 27     ecut=   200.00 Ry     beta= 0.70
     Davidson diagonalization with overlap
     ethr =  5.92E-08,  avg # of iterations =  3.3

     negative rho (up, down):  9.769E-04 0.000E+00

     total cpu time spent up to now is       17.1 secs

     WARNING: integrated charge=    27.99999546, expected=    28.00000000

     total energy              =    -448.58675383 Ry
     estimated scf accuracy    <       0.00000053 Ry

     iteration # 28     ecut=   200.00 Ry     beta= 0.70
     Davidson diagonalization with overlap
     ethr =  1.90E-09,  avg # of iterations =  4.7

     negative rho (up, down):  9.772E-04 0.000E+00

     total cpu time spent up to now is       17.9 secs

     total energy              =    -448.58675417 Ry
     estimated scf accuracy    <       0.00000006 Ry

     iteration # 29     ecut=   200.00 Ry     beta= 0.70
     Davidson diagonalization with overlap
     ethr =  2.10E-10,  avg # of iterations =  4.1

     negative rho (up, down):  9.771E-04 0.000E+00

     total cpu time spent up to now is       18.6 secs

     total energy              =    -448.58675419 Ry
     estimated scf accuracy    <       0.00000004 Ry

     iteration # 30     ecut=   200.00 Ry     beta= 0.70
     Davidson diagonalization with overlap
     ethr =  1.39E-10,  avg # of iterations =  1.6

     negative rho (up, down):  9.771E-04 0.000E+00

     total cpu time spent up to now is       19.1 secs

     total energy              =    -448.58675419 Ry
     estimated scf accuracy    <       0.00000001 Ry

     iteration # 31     ecut=   200.00 Ry     beta= 0.70
     Davidson diagonalization with overlap
     ethr =  4.03E-11,  avg # of iterations =  2.7

     negative rho (up, down):  9.770E-04 0.000E+00

     total cpu time spent up to now is       19.7 secs

     End of self-consistent calculation

          k = 0.0000 0.0000 0.0000 (  8217 PWs)   bands (ev):

   -69.2042 -39.1407 -35.2662 -35.2662 -35.2662 -15.2356 -15.2356 -15.2356
    10.1529  13.8668  13.8668  16.6614  16.6614  16.6614  19.0044  19.0044
    20.9449  20.9449

          k = 0.0000 0.0000 0.1111 (  8217 PWs)   bands (ev):

   -69.2038 -39.1376 -35.2699 -35.2656 -35.2656 -15.2788 -15.2331 -15.2331
    10.4101  13.9907  13.9986  16.6429  16.6429  16.7175  18.8473  19.0621
    20.5823  20.5823

          k = 0.0000 0.0000 0.2222 (  8189 PWs)   bands (ev):

   -69.2027 -39.1297 -35.2792 -35.2642 -35.2642 -15.3868 -15.2265 -15.2265
    11.1436  14.3127  14.3486  16.6063  16.6063  16.8689  18.4023  19.1657
    19.8172  19.8172

          k = 0.0000 0.0000 0.3333 (  8197 PWs)   bands (ev):

   -69.2016 -39.1207 -35.2898 -35.2625 -35.2625 -15.5078 -15.2191 -15.2191
    12.2343  14.5611  14.8884  16.5884  16.5884  17.0614  17.7586  19.0699
    19.0898  19.0898

          k = 0.0000 0.0000 0.4444 (  8153 PWs)   bands (ev):

   -69.2008 -39.1148 -35.2966 -35.2615 -35.2615 -15.5858 -15.2142 -15.2142
    13.4361  14.3572  15.4423  16.5970  16.5970  17.1341  17.2029  18.6543
    18.6543  18.6886

          k = 0.0000 0.1111 0.1111 (  8201 PWs)   bands (ev):

   -69.2034 -39.1342 -35.2713 -35.2679 -35.2651 -15.2800 -15.2712 -15.2303
    10.6594  14.1026  14.1344  16.5211  16.6075  16.8505  18.8364  19.0204
    20.2145  20.2228

          k = 0.0000 0.1111 0.2222 (  8209 PWs)   bands (ev):

   -69.2023 -39.1255 -35.2801 -35.2681 -35.2637 -15.3825 -15.2671 -15.2233
    11.3671  14.3907  14.4886  16.4126  16.5286  16.9760  18.5221  19.1065
    19.5188  19.6217

          k = 0.0000 0.1111 0.3333 (  8191 PWs)   bands (ev):

   -69.2012 -39.1157 -35.2909 -35.2675 -35.2620 -15.5016 -15.2582 -15.2154
    12.4070  14.6302  14.9693  16.3812  16.4516  16.9783  18.0218  18.7288
    19.1996  19.2930

          k = 0.0000 0.1111 0.4444 (  8175 PWs)   bands (ev):

   -69.2004 -39.1093 -35.2979 -35.2671 -35.2610 -15.5784 -15.2523 -15.2102
    13.5282  14.4158  15.4510  16.3727  16.4279  16.8599  17.6151  18.3321
    19.0622  19.1220

          k = 0.0000 0.2222 0.2222 (  8210 PWs)   bands (ev):

   -69.2013 -39.1151 -35.2841 -35.2760 -35.2623 -15.3806 -15.3601 -15.2153
    11.9851  14.5177  14.9057  16.1679  16.3906  16.9253  18.6820  18.9277
    19.0774  19.4446

          k = 0.0000 0.2222 0.3333 (  8195 PWs)   bands (ev):

   -69.2001 -39.1032 -35.2939 -35.2798 -35.2608 -15.4861 -15.3562 -15.2061
    12.8342  14.5595  15.4147  16.0314  16.3565  16.6321  18.4522  18.5679
    19.2724  19.5511

          k = 0.0000 0.2222 0.4444 (  8177 PWs)   bands (ev):

   -69.1994 -39.0955 -35.3014 -35.2812 -35.2598 -15.5598 -15.3480 -15.2000
    13.6333  14.3472  15.7685  16.0519  16.3089  16.5253  18.1620  18.3865
    19.4418  19.7733

          k = 0.0000 0.3333 0.3333 (  8206 PWs)   bands (ev):

   -69.1990 -39.0889 -35.2988 -35.2924 -35.2593 -15.4751 -15.4594 -15.1954
    13.2770  14.3423  15.7743  16.0817  16.1899  16.5973  18.4983  18.9570
    19.1302  20.0104

          k = 0.0000 0.3333 0.4444 (  8172 PWs)   bands (ev):

   -69.1982 -39.0796 -35.3054 -35.2971 -35.2584 -15.5386 -15.4552 -15.1885
    13.5431  14.1320  15.7014  15.8511  16.5378  17.2526  18.2577  19.0235
    19.3896  20.4024

          k = 0.0000 0.4444 0.4444 (  8190 PWs)   bands (ev):

   -69.1975 -39.0692 -35.3083 -35.3073 -35.2575 -15.5258 -15.5233 -15.1809
    13.4110  13.9878  15.5239  15.5746  17.4119  17.8949  18.6531  18.8988
    19.4000  20.7932

          k = 0.1111 0.1111 0.1111 (  8178 PWs)   bands (ev):

   -69.2029 -39.1305 -35.2707 -35.2707 -35.2662 -15.2799 -15.2685 -15.2685
    10.9027  14.2397  14.2397  16.4825  16.4825  16.9328  18.9191  18.9191
    19.6871  20.5508

          k = 0.1111 0.1111 0.2222 (  8193 PWs)   bands (ev):

   -69.2019 -39.1213 -35.2804 -35.2692 -35.2666 -15.3782 -15.2657 -15.2618
    11.5899  14.5390  14.5600  16.3345  16.3837  16.9339  18.6336  19.0553
    19.2932  19.7869

          k = 0.1111 0.1111 0.3333 (  8178 PWs)   bands (ev):

   -69.2008 -39.1108 -35.2917 -35.2675 -35.2667 -15.4958 -15.2549 -15.2541
    12.5886  14.7776  14.9748  16.2511  16.3094  16.7822  18.2363  18.8266
    19.0882  19.4695

          k = 0.1111 0.1111 0.4444 (  8189 PWs)   bands (ev):

   -69.2000 -39.1040 -35.2990 -35.2667 -35.2664 -15.5716 -15.2491 -15.2478
    13.6445  14.5216  15.4012  16.0882  16.4641  16.6556  17.9097  18.4425
    18.6926  19.7757

          k = 0.1111 0.2222 0.2222 (  8199 PWs)   bands (ev):

   -69.2009 -39.1106 -35.2835 -35.2769 -35.2668 -15.3751 -15.3573 -15.2550
    12.2042  14.6853  14.9560  16.1096  16.2316  16.6656  18.7807  19.0553
    19.1788  19.5653

          k = 0.1111 0.2222 0.3333 (  8199 PWs)   bands (ev):

   -69.1997 -39.0984 -35.2939 -35.2797 -35.2660 -15.4810 -15.3525 -15.2451
    13.0400  14.7475  15.3796  15.9600  16.1841  16.3783  18.6602  18.7091
    19.1637  19.8256

          k = 0.1111 0.2222 0.4444 (  8168 PWs)   bands (ev):

   -69.1990 -39.0905 -35.3019 -35.2806 -35.2653 -15.5543 -15.3444 -15.2386
    13.8089  14.5240  15.5936  15.8927  16.2206  16.4966  18.2709  18.5492
    18.9338  20.4579

          k = 0.1111 0.3333 0.3333 (  8191 PWs)   bands (ev):

   -69.1986 -39.0843 -35.2980 -35.2926 -35.2647 -15.4701 -15.4566 -15.2344
    13.4982  14.5252  15.7243  16.0001  16.0454  16.3674  18.5345  19.0226
    19.1244  20.3727

          k = 0.1111 0.3333 0.4444 (  8174 PWs)   bands (ev):

   -69.1978 -39.0750 -35.3051 -35.2966 -35.2638 -15.5346 -15.4520 -15.2274
    13.7458  14.3194  15.6445  15.7439  16.4458  17.0247  18.2489  18.9231
    19.2083  20.7256

          k = 0.1111 0.4444 0.4444 (  8178 PWs)   bands (ev):

   -69.1971 -39.0649 -35.3076 -35.3067 -35.2629 -15.5226 -15.5205 -15.2200
    13.6145  14.1771  15.4904  15.5314  17.3096  17.6411  18.3851  18.4775
    19.5189  20.9964

          k = 0.2222 0.2222 0.2222 (  8180 PWs)   bands (ev):

   -69.1999 -39.0992 -35.2818 -35.2818 -35.2755 -15.3659 -15.3502 -15.3502
    12.8007  15.0890  15.0890  15.9656  15.9656  16.1366  18.9756  18.9756
    19.7331  19.8015

          k = 0.2222 0.2222 0.3333 (  8190 PWs)   bands (ev):

   -69.1987 -39.0863 -35.2943 -35.2800 -35.2784 -15.4682 -15.3441 -15.3422
    13.5720  15.2105  15.2561  15.8007  15.8790  15.9763  18.8093  18.8383
    19.2743  20.2071

          k = 0.2222 0.2222 0.4444 (  8161 PWs)   bands (ev):

   -69.1980 -39.0778 -35.3030 -35.2797 -35.2787 -15.5403 -15.3370 -15.3338
    14.1884  14.8272  15.3911  15.6743  16.0216  16.3834  18.3150  18.6273
    19.0634  20.5593

          k = 0.2222 0.3333 0.3333 (  8176 PWs)   bands (ev):

   -69.1976 -39.0724 -35.2962 -35.2929 -35.2783 -15.4574 -15.4494 -15.3323
    14.1079  14.9632  15.6085  15.6568  15.8759  15.9300  18.5787  18.7296
    19.5872  20.3140

          k = 0.2222 0.3333 0.4444 (  8157 PWs)   bands (ev):

   -69.1969 -39.0633 -35.3045 -35.2950 -35.2776 -15.5244 -15.4439 -15.3251
    14.2950  14.7585  15.5184  15.5650  16.1326  16.5573  18.2057  18.5102
    19.6337  20.6966

          k = 0.2222 0.4444 0.4444 (  8171 PWs)   bands (ev):

   -69.1961 -39.0538 -35.3056 -35.3051 -35.2765 -15.5146 -15.5134 -15.3183
    14.1814  14.6482  15.4205  15.4502  16.8819  16.9024  18.0403  18.2420
    19.9144  21.0510

          k = 0.3333 0.3333 0.3333 (  8156 PWs)   bands (ev):

   -69.1965 -39.0589 -35.2942 -35.2942 -35.2929 -15.4437 -15.4412 -15.4412
    14.8407  15.1324  15.5030  15.5030  15.7487  15.7487  18.4422  18.4422
    20.2353  20.2353

          k = 0.3333 0.3333 0.4444 (  8165 PWs)   bands (ev):

   -69.1957 -39.0500 -35.3038 -35.2936 -35.2928 -15.5129 -15.4359 -15.4334
    14.8622  15.0702  15.4788  15.5725  15.7993  16.2219  18.0780  18.2966
    20.2287  20.7866

          k = 0.3333 0.4444 0.4444 (  8185 PWs)   bands (ev):

   -69.1950 -39.0413 -35.3034 -35.3033 -35.2920 -15.5055 -15.5052 -15.4286
    14.9322  15.1370  15.3876  15.4789  16.1951  16.2707  17.9124  18.1056
    20.5427  21.0943

          k = 0.4444 0.4444 0.4444 (  8153 PWs)   bands (ev):

   -69.1943 -39.0330 -35.3022 -35.3020 -35.3020 -15.4999 -15.4999 -15.4993
    15.2786  15.4656  15.4656  15.7968  15.7968  15.8048  17.8841  17.8841
    21.1206  21.1206

     the Fermi energy is    17.6490 ev

!    total energy              =    -448.58675419 Ry
     estimated scf accuracy    <          1.3E-09 Ry
     smearing contrib. (-TS)   =      -0.00008120 Ry
     internal energy E=F+TS    =    -448.58667299 Ry

     The total energy is F=E-TS. E is the sum of the following terms:
     one-electron contribution =    -151.35300739 Ry
     hartree contribution      =      91.62987972 Ry
     xc contribution           =     -52.88908497 Ry
     ewald contribution        =    -259.82070277 Ry
     one-center paw contrib.   =     -76.15375758 Ry

     convergence has been achieved in  31 iterations

     negative rho (up, down):  9.770E-04 0.000E+00

     Forces acting on atoms (cartesian axes, Ry/au):

     atom    1 type  1   force =     0.00000000    0.00000000    0.00000000
     atom    2 type  2   force =     0.00000000    0.00000000    0.00000000

     Total force =     0.000000     Total SCF correction =     0.000000


     Computing stress (Cartesian axis) and pressure


     negative rho (up, down):  9.770E-04 0.000E+00
          total   stress  (Ry/bohr**3)                   (kbar)     P=       31.94
   0.00021709   0.00000000   0.00000000           31.94        0.00        0.00
   0.00000000   0.00021709   0.00000000            0.00       31.94        0.00
   0.00000000   0.00000000   0.00021709            0.00        0.00       31.94


     Writing all to output data dir ./TiFe.save/ :
     XML data file, charge density, pseudopotentials, collected wavefunctions

     init_run     :      0.93s CPU      0.96s WALL (       1 calls)
     electrons    :     18.11s CPU     18.59s WALL (       1 calls)
     forces       :      0.08s CPU      0.09s WALL (       1 calls)
     stress       :      0.39s CPU      0.40s WALL (       1 calls)

     Called by init_run:
     wfcinit      :      0.21s CPU      0.22s WALL (       1 calls)
     potinit      :      0.21s CPU      0.21s WALL (       1 calls)
     hinit0       :      0.44s CPU      0.45s WALL (       1 calls)

     Called by electrons:
     c_bands      :     12.66s CPU     12.94s WALL (      31 calls)
     sum_band     :      3.24s CPU      3.30s WALL (      31 calls)
     v_of_rho     :      0.17s CPU      0.19s WALL (      32 calls)
     newd         :      0.93s CPU      0.94s WALL (      32 calls)
     PAW_pot      :      1.11s CPU      1.14s WALL (      32 calls)
     mix_rho      :      0.04s CPU      0.05s WALL (      31 calls)

     Called by c_bands:
     init_us_2    :      0.35s CPU      0.35s WALL (    2275 calls)
     cegterg      :     12.02s CPU     12.29s WALL (    1085 calls)

     Called by *egterg:
     cdiaghg      :      1.11s CPU      1.13s WALL (    3782 calls)
     h_psi        :      9.33s CPU      9.55s WALL (    3817 calls)
     s_psi        :      0.21s CPU      0.22s WALL (    3817 calls)
     g_psi        :      0.05s CPU      0.05s WALL (    2697 calls)

     Called by h_psi:
     h_psi:calbec :      0.39s CPU      0.40s WALL (    3817 calls)
     vloc_psi     :      8.69s CPU      8.89s WALL (    3817 calls)
     add_vuspsi   :      0.21s CPU      0.22s WALL (    3817 calls)

     General routines
     calbec       :      0.59s CPU      0.60s WALL (    5497 calls)
     fft          :      0.49s CPU      0.51s WALL (     439 calls)
     ffts         :      0.17s CPU      0.17s WALL (      63 calls)
     fftw         :      9.36s CPU      9.58s WALL (  115260 calls)
     interpolate  :      0.17s CPU      0.18s WALL (      32 calls)

     Parallel routines

     PWSCF        :     19.80s CPU     22.07s WALL


   This run was terminated on:  10:40:56  28Oct2025            

=------------------------------------------------------------------------------=
   JOB DONE.
=------------------------------------------------------------------------------=
Note: The following floating-point exceptions are signalling: IEEE_UNDERFLOW_FLAG IEEE_DENORMAL
Note: The following floating-point exceptions are signalling: IEEE_UNDERFLOW_FLAG IEEE_DENORMAL
Note: The following floating-point exceptions are signalling: IEEE_UNDERFLOW_FLAG IEEE_DENORMAL
Note: The following floating-point exceptions are signalling: IEEE_UNDERFLOW_FLAG IEEE_DENORMAL
Note: The following floating-point exceptions are signalling: IEEE_UNDERFLOW_FLAG IEEE_DENORMAL
Note: The following floating-point exceptions are signalling: IEEE_UNDERFLOW_FLAG IEEE_DENORMAL
Note: The following floating-point exceptions are signalling: IEEE_UNDERFLOW_FLAG IEEE_DENORMAL
Note: The following floating-point exceptions are signalling: IEEE_UNDERFLOW_FLAG IEEE_DENORMAL
Note: The following floating-point exceptions are signalling: IEEE_UNDERFLOW_FLAG IEEE_DENORMAL
Note: The following floating-point exceptions are signalling: IEEE_UNDERFLOW_FLAG IEEE_DENORMAL
Note: The following floating-point exceptions are signalling: IEEE_UNDERFLOW_FLAG IEEE_DENORMAL
Note: The following floating-point exceptions are signalling: IEEE_UNDERFLOW_FLAG IEEE_DENORMAL
Note: The following floating-point exceptions are signalling: IEEE_UNDERFLOW_FLAG IEEE_DENORMAL
Note: The following floating-point exceptions are signalling: IEEE_UNDERFLOW_FLAG IEEE_DENORMAL
Note: The following floating-point exceptions are signalling: IEEE_UNDERFLOW_FLAG IEEE_DENORMAL
Note: The following floating-point exceptions are signalling: IEEE_UNDERFLOW_FLAG IEEE_DENORMAL
