
     Program PWSCF v.7.4 starts on 28Oct2025 at 10:38:55 

     This program is part of the open-source Quantum ESPRESSO suite
     for quantum simulation of materials; please cite
         "P. Giannozzi et al., J. Phys.:Condens. Matter 21 395502 (2009);
         "P. Giannozzi et al., J. Phys.:Condens. Matter 29 465901 (2017);
         "P. Giannozzi et al., J. Chem. Phys. 152 154105 (2020);
          URL http://www.quantum-espresso.org", 
     in publications or presentations arising from this work. More details at
     http://www.quantum-espresso.org/quote

     Parallel version (MPI & OpenMP), running on      16 processor cores
     Number of MPI processes:                16
     Threads/MPI process:                     1

     MPI processes distributed on     1 nodes
     230638 MiB available memory on the printing compute node when the environment starts

     Reading input from TiFe_ecutwfc_convergence/TiFe2_ecut40.in

     Current dimensions of program PWSCF are:
     Max number of different atomic species (ntypx) = 10
     Max number of k-points (npk) =  40000
     Max angular momentum in pseudopotentials (lmaxx) =  4
     file Fe.pbe-spn-kjpaw_psl.0.2.1.UPF: wavefunction(s)  3D renormalized

     IMPORTANT: XC functional enforced from input :
     Exchange-correlation= PBE
                           (   1   4   3   4   0   0   0)
     Any further DFT definition will be discarded
     Please, verify this is what you really want

     Message from routine setup:
     using ibrav=0 with symmetry is DISCOURAGED, use correct ibrav instead

     K-points division:     npool     =       2
     R & G space division:  proc/nbgrp/npool/nimage =       8
     Subspace diagonalization in iterative solution of the eigenvalue problem:
     a serial algorithm will be used


     Parallelization info
     --------------------
     sticks:   dense  smooth     PW     G-vecs:    dense   smooth      PW
     Min          61      48     15                 1027      716     130
     Max          62      49     17                 1028      719     132
     Sum         489     385    129                 8217     5743    1045

     Using Slab Decomposition



     bravais-lattice index     =            0
     lattice parameter (alat)  =       5.5533  a.u.
     unit-cell volume          =     171.2590 (a.u.)^3
     number of atoms/cell      =            2
     number of atomic types    =            2
     number of electrons       =        28.00
     number of Kohn-Sham states=           18
     kinetic-energy cutoff     =      40.0000  Ry
     charge density cutoff     =     200.0000  Ry
     scf convergence threshold =      1.0E-08
     mixing beta               =       0.7000
     number of iterations used =            8  plain     mixing
     Exchange-correlation= PBE
                           (   1   4   3   4   0   0   0)

     celldm(1)=   5.553300  celldm(2)=   0.000000  celldm(3)=   0.000000
     celldm(4)=   0.000000  celldm(5)=   0.000000  celldm(6)=   0.000000

     crystal axes: (cart. coord. in units of alat)
               a(1) = (   1.000000   0.000000   0.000000 )  
               a(2) = (   0.000000   1.000000   0.000000 )  
               a(3) = (   0.000000   0.000000   1.000000 )  

     reciprocal axes: (cart. coord. in units 2 pi/alat)
               b(1) = (  1.000000  0.000000  0.000000 )  
               b(2) = (  0.000000  1.000000  0.000000 )  
               b(3) = (  0.000000  0.000000  1.000000 )  


     PseudoPot. # 1 for Fe read from file:
     ./Fe.pbe-spn-kjpaw_psl.0.2.1.UPF
     MD5 check sum: e86618425769142926afa95317d90200
     Pseudo is Projector augmented-wave + core cor, Zval = 16.0
     Generated using "atomic" code by A. Dal Corso  v.5.0.99 svn rev. 10869
     Shape of augmentation charge: PSQ
     Using radial grid of 1191 points,  6 beta functions with: 
                l(1) =   0
                l(2) =   0
                l(3) =   1
                l(4) =   1
                l(5) =   2
                l(6) =   2
     Q(r) pseudized with 0 coefficients 


     PseudoPot. # 2 for Ti read from file:
     ./Ti_pbe_v1.4.uspp.F.UPF
     MD5 check sum: 88a00a6731bd790ddea75d31a80cb452
     Pseudo is Ultrasoft + core correction, Zval = 12.0
     Generated by new atomic code, or converted to UPF format
     Using radial grid of  851 points,  6 beta functions with: 
                l(1) =   0
                l(2) =   0
                l(3) =   1
                l(4) =   1
                l(5) =   2
                l(6) =   2
     Q(r) pseudized with  6 coefficients,  rinner =    1.000   1.000   1.000
                                                       1.000   1.000

     atomic species   valence    mass     pseudopotential
     Fe               16.00    55.84500     Fe( 1.00)
     Ti               12.00    47.86700     Ti( 1.00)

     48 Sym. Ops., with inversion, found



   Cartesian axes

     site n.     atom                  positions (alat units)
         1        Fe     tau(   1) = (   0.5000000   0.5000000   0.5000000  )
         2        Ti     tau(   2) = (   0.0000000   0.0000000   0.0000000  )

     number of k points=    35  Marzari-Vanderbilt smearing, width (Ry)=  0.0050
                       cart. coord. in units 2pi/alat
        k(    1) = (   0.0000000   0.0000000   0.0000000), wk =   0.0027435
        k(    2) = (   0.0000000   0.0000000   0.1111111), wk =   0.0164609
        k(    3) = (   0.0000000   0.0000000   0.2222222), wk =   0.0164609
        k(    4) = (   0.0000000   0.0000000   0.3333333), wk =   0.0164609
        k(    5) = (   0.0000000   0.0000000   0.4444444), wk =   0.0164609
        k(    6) = (   0.0000000   0.1111111   0.1111111), wk =   0.0329218
        k(    7) = (   0.0000000   0.1111111   0.2222222), wk =   0.0658436
        k(    8) = (   0.0000000   0.1111111   0.3333333), wk =   0.0658436
        k(    9) = (   0.0000000   0.1111111   0.4444444), wk =   0.0658436
        k(   10) = (   0.0000000   0.2222222   0.2222222), wk =   0.0329218
        k(   11) = (   0.0000000   0.2222222   0.3333333), wk =   0.0658436
        k(   12) = (   0.0000000   0.2222222   0.4444444), wk =   0.0658436
        k(   13) = (   0.0000000   0.3333333   0.3333333), wk =   0.0329218
        k(   14) = (   0.0000000   0.3333333   0.4444444), wk =   0.0658436
        k(   15) = (   0.0000000   0.4444444   0.4444444), wk =   0.0329218
        k(   16) = (   0.1111111   0.1111111   0.1111111), wk =   0.0219479
        k(   17) = (   0.1111111   0.1111111   0.2222222), wk =   0.0658436
        k(   18) = (   0.1111111   0.1111111   0.3333333), wk =   0.0658436
        k(   19) = (   0.1111111   0.1111111   0.4444444), wk =   0.0658436
        k(   20) = (   0.1111111   0.2222222   0.2222222), wk =   0.0658436
        k(   21) = (   0.1111111   0.2222222   0.3333333), wk =   0.1316872
        k(   22) = (   0.1111111   0.2222222   0.4444444), wk =   0.1316872
        k(   23) = (   0.1111111   0.3333333   0.3333333), wk =   0.0658436
        k(   24) = (   0.1111111   0.3333333   0.4444444), wk =   0.1316872
        k(   25) = (   0.1111111   0.4444444   0.4444444), wk =   0.0658436
        k(   26) = (   0.2222222   0.2222222   0.2222222), wk =   0.0219479
        k(   27) = (   0.2222222   0.2222222   0.3333333), wk =   0.0658436
        k(   28) = (   0.2222222   0.2222222   0.4444444), wk =   0.0658436
        k(   29) = (   0.2222222   0.3333333   0.3333333), wk =   0.0658436
        k(   30) = (   0.2222222   0.3333333   0.4444444), wk =   0.1316872
        k(   31) = (   0.2222222   0.4444444   0.4444444), wk =   0.0658436
        k(   32) = (   0.3333333   0.3333333   0.3333333), wk =   0.0219479
        k(   33) = (   0.3333333   0.3333333   0.4444444), wk =   0.0658436
        k(   34) = (   0.3333333   0.4444444   0.4444444), wk =   0.0658436
        k(   35) = (   0.4444444   0.4444444   0.4444444), wk =   0.0219479

     Dense  grid:     8217 G-vectors     FFT dimensions: (  25,  25,  25)

     Smooth grid:     5743 G-vectors     FFT dimensions: (  24,  24,  24)

     Estimated max dynamical RAM per process >       5.00 MB

     Estimated total dynamical RAM >      78.02 MB

     Check: negative core charge=   -0.000578

     Initial potential from superposition of free atoms

     starting charge      26.9995, renormalised to      28.0000

     negative rho (up, down):  2.436E-03 0.000E+00
     Starting wfcs are   23 randomized atomic wfcs
     Checking if some PAW data can be deallocated... 

     total cpu time spent up to now is        0.6 secs

     per-process dynamical memory:   113.9 Mb

     Self-consistent Calculation

     iteration #  1     ecut=    40.00 Ry     beta= 0.70
     Davidson diagonalization with overlap
     ethr =  1.00E-02,  avg # of iterations =  2.1

     total cpu time spent up to now is        0.7 secs

     WARNING: integrated charge=    28.00057221, expected=    28.00000000

     total energy              =    -434.61494123 Ry
     estimated scf accuracy    <      17.69726544 Ry

     iteration #  2     ecut=    40.00 Ry     beta= 0.70
     Davidson diagonalization with overlap
     ethr =  1.00E-02,  avg # of iterations =  4.7

     negative rho (up, down):  4.533E-04 0.000E+00

     total cpu time spent up to now is        0.9 secs

     WARNING: integrated charge=    28.00043407, expected=    28.00000000

     total energy              =    -449.06141185 Ry
     estimated scf accuracy    <      63.45786945 Ry

     iteration #  3     ecut=    40.00 Ry     beta= 0.70
     Davidson diagonalization with overlap
     ethr =  1.00E-02,  avg # of iterations =  3.0
     Minimization algorithm failed to find Fermi energy: reverting to bisection
     Possible cause: smearing is larger than the electronic band-gap.

     negative rho (up, down):  1.090E-03 0.000E+00

     total cpu time spent up to now is        1.0 secs

     WARNING: integrated charge=    28.00034720, expected=    28.00000000

     total energy              =    -448.51638393 Ry
     estimated scf accuracy    <      17.07193203 Ry

     iteration #  4     ecut=    40.00 Ry     beta= 0.70
     Davidson diagonalization with overlap
     ethr =  1.00E-02,  avg # of iterations =  2.1
     Minimization algorithm failed to find Fermi energy: reverting to bisection
     Possible cause: smearing is larger than the electronic band-gap.

     negative rho (up, down):  1.174E-03 0.000E+00

     total cpu time spent up to now is        1.1 secs

     WARNING: integrated charge=    28.00033831, expected=    28.00000000

     total energy              =    -449.07517727 Ry
     estimated scf accuracy    <       4.84077242 Ry

     iteration #  5     ecut=    40.00 Ry     beta= 0.70
     Davidson diagonalization with overlap
     ethr =  1.00E-02,  avg # of iterations =  1.0

     negative rho (up, down):  1.171E-03 0.000E+00

     total cpu time spent up to now is        1.2 secs

     WARNING: integrated charge=    27.99993327, expected=    28.00000000

     total energy              =    -449.09192196 Ry
     estimated scf accuracy    <       4.54175325 Ry

     iteration #  6     ecut=    40.00 Ry     beta= 0.70
     Davidson diagonalization with overlap
     ethr =  1.00E-02,  avg # of iterations =  1.0

     negative rho (up, down):  1.653E-03 0.000E+00

     total cpu time spent up to now is        1.3 secs

     WARNING: integrated charge=    28.00997055, expected=    28.00000000

     total energy              =    -448.42365608 Ry
     estimated scf accuracy    <       4.42793139 Ry

     iteration #  7     ecut=    40.00 Ry     beta= 0.70
     Davidson diagonalization with overlap
     ethr =  1.00E-02,  avg # of iterations =  1.3

     negative rho (up, down):  1.814E-03 0.000E+00

     total cpu time spent up to now is        1.4 secs

     WARNING: integrated charge=    28.01034835, expected=    28.00000000

     total energy              =    -448.48930810 Ry
     estimated scf accuracy    <       0.78980460 Ry

     iteration #  8     ecut=    40.00 Ry     beta= 0.70
     Davidson diagonalization with overlap
     ethr =  2.82E-03,  avg # of iterations =  1.5

     negative rho (up, down):  1.849E-03 0.000E+00

     total cpu time spent up to now is        1.5 secs

     WARNING: integrated charge=    28.01091963, expected=    28.00000000

     total energy              =    -448.51586573 Ry
     estimated scf accuracy    <       0.22112481 Ry

     iteration #  9     ecut=    40.00 Ry     beta= 0.70
     Davidson diagonalization with overlap
     ethr =  7.90E-04,  avg # of iterations =  1.9

     negative rho (up, down):  2.400E-03 0.000E+00

     total cpu time spent up to now is        1.6 secs

     WARNING: integrated charge=    28.01443097, expected=    28.00000000

     total energy              =    -448.41025697 Ry
     estimated scf accuracy    <       0.26914485 Ry

     iteration # 10     ecut=    40.00 Ry     beta= 0.70
     Davidson diagonalization with overlap
     ethr =  7.90E-04,  avg # of iterations =  5.7

     negative rho (up, down):  1.770E-03 0.000E+00

     total cpu time spent up to now is        1.8 secs

     WARNING: integrated charge=    28.00698644, expected=    28.00000000

     total energy              =    -447.84607933 Ry
     estimated scf accuracy    <       7.02189482 Ry

     iteration # 11     ecut=    40.00 Ry     beta= 0.70
     Davidson diagonalization with overlap
     ethr =  7.90E-04,  avg # of iterations =  4.9

     negative rho (up, down):  2.032E-03 0.000E+00

     total cpu time spent up to now is        1.9 secs

     WARNING: integrated charge=    28.00363182, expected=    28.00000000

     total energy              =    -448.36515001 Ry
     estimated scf accuracy    <       0.92132006 Ry

     iteration # 12     ecut=    40.00 Ry     beta= 0.70
     Davidson diagonalization with overlap
     ethr =  7.90E-04,  avg # of iterations =  3.9

     negative rho (up, down):  1.748E-03 0.000E+00

     total cpu time spent up to now is        2.1 secs

     WARNING: integrated charge=    28.00072124, expected=    28.00000000

     total energy              =    -448.34995883 Ry
     estimated scf accuracy    <       1.17374626 Ry

     iteration # 13     ecut=    40.00 Ry     beta= 0.70
     Davidson diagonalization with overlap
     ethr =  7.90E-04,  avg # of iterations =  3.9

     negative rho (up, down):  1.817E-03 0.000E+00

     total cpu time spent up to now is        2.2 secs

     WARNING: integrated charge=    28.00005382, expected=    28.00000000

     total energy              =    -448.54979795 Ry
     estimated scf accuracy    <       0.69480906 Ry

     iteration # 14     ecut=    40.00 Ry     beta= 0.70
     Davidson diagonalization with overlap
     ethr =  7.90E-04,  avg # of iterations =  1.0

     negative rho (up, down):  2.564E-03 0.000E+00

     total cpu time spent up to now is        2.3 secs

     WARNING: integrated charge=    28.00015442, expected=    28.00000000

     total energy              =    -448.40812334 Ry
     estimated scf accuracy    <       0.53830956 Ry

     iteration # 15     ecut=    40.00 Ry     beta= 0.70
     Davidson diagonalization with overlap
     ethr =  7.90E-04,  avg # of iterations =  4.5

     negative rho (up, down):  2.364E-03 0.000E+00

     total cpu time spent up to now is        2.4 secs

     WARNING: integrated charge=    28.00032645, expected=    28.00000000

     total energy              =    -448.50208338 Ry
     estimated scf accuracy    <       1.15330022 Ry

     iteration # 16     ecut=    40.00 Ry     beta= 0.70
     Davidson diagonalization with overlap
     ethr =  7.90E-04,  avg # of iterations =  1.7

     negative rho (up, down):  2.046E-03 0.000E+00

     total cpu time spent up to now is        2.5 secs

     WARNING: integrated charge=    28.00070050, expected=    28.00000000

     total energy              =    -448.48021210 Ry
     estimated scf accuracy    <       0.26368610 Ry

     iteration # 17     ecut=    40.00 Ry     beta= 0.70
     Davidson diagonalization with overlap
     ethr =  7.90E-04,  avg # of iterations =  3.1

     negative rho (up, down):  2.073E-03 0.000E+00

     total cpu time spent up to now is        2.7 secs

     WARNING: integrated charge=    28.00008936, expected=    28.00000000

     total energy              =    -448.50857353 Ry
     estimated scf accuracy    <       0.01243386 Ry

     iteration # 18     ecut=    40.00 Ry     beta= 0.70
     Davidson diagonalization with overlap
     ethr =  4.44E-05,  avg # of iterations =  2.0

     negative rho (up, down):  2.100E-03 0.000E+00

     total cpu time spent up to now is        2.8 secs

     WARNING: integrated charge=    28.00003912, expected=    28.00000000

     total energy              =    -448.50964162 Ry
     estimated scf accuracy    <       0.00013489 Ry

     iteration # 19     ecut=    40.00 Ry     beta= 0.70
     Davidson diagonalization with overlap
     ethr =  4.82E-07,  avg # of iterations =  5.0

     negative rho (up, down):  2.086E-03 0.000E+00

     total cpu time spent up to now is        2.9 secs

     WARNING: integrated charge=    28.00008603, expected=    28.00000000

     total energy              =    -448.51013779 Ry
     estimated scf accuracy    <       0.00244054 Ry

     iteration # 20     ecut=    40.00 Ry     beta= 0.70
     Davidson diagonalization with overlap
     ethr =  4.82E-07,  avg # of iterations =  3.3

     negative rho (up, down):  2.077E-03 0.000E+00

     total cpu time spent up to now is        3.1 secs

     WARNING: integrated charge=    27.99999119, expected=    28.00000000

     total energy              =    -448.50982634 Ry
     estimated scf accuracy    <       0.00578638 Ry

     iteration # 21     ecut=    40.00 Ry     beta= 0.70
     Davidson diagonalization with overlap
     ethr =  4.82E-07,  avg # of iterations =  3.5

     negative rho (up, down):  2.060E-03 0.000E+00

     total cpu time spent up to now is        3.2 secs

     WARNING: integrated charge=    27.99995812, expected=    28.00000000

     total energy              =    -448.50969411 Ry
     estimated scf accuracy    <       0.00220561 Ry

     iteration # 22     ecut=    40.00 Ry     beta= 0.70
     Davidson diagonalization with overlap
     ethr =  4.82E-07,  avg # of iterations =  3.9

     negative rho (up, down):  2.053E-03 0.000E+00

     total cpu time spent up to now is        3.3 secs

     WARNING: integrated charge=    27.99998638, expected=    28.00000000

     total energy              =    -448.50970666 Ry
     estimated scf accuracy    <       0.00033579 Ry

     iteration # 23     ecut=    40.00 Ry     beta= 0.70
     Davidson diagonalization with overlap
     ethr =  4.82E-07,  avg # of iterations =  1.9

     negative rho (up, down):  2.049E-03 0.000E+00

     total cpu time spent up to now is        3.4 secs

     WARNING: integrated charge=    27.99999342, expected=    28.00000000

     total energy              =    -448.50971914 Ry
     estimated scf accuracy    <       0.00002460 Ry

     iteration # 24     ecut=    40.00 Ry     beta= 0.70
     Davidson diagonalization with overlap
     ethr =  8.78E-08,  avg # of iterations =  3.9

     negative rho (up, down):  2.049E-03 0.000E+00

     total cpu time spent up to now is        3.5 secs

     WARNING: integrated charge=    28.00000340, expected=    28.00000000

     total energy              =    -448.50972268 Ry
     estimated scf accuracy    <       0.00000012 Ry

     iteration # 25     ecut=    40.00 Ry     beta= 0.70
     Davidson diagonalization with overlap
     ethr =  4.23E-10,  avg # of iterations =  5.1

     negative rho (up, down):  2.049E-03 0.000E+00

     total cpu time spent up to now is        3.7 secs

     total energy              =    -448.50972291 Ry
     estimated scf accuracy    <       0.00000011 Ry

     iteration # 26     ecut=    40.00 Ry     beta= 0.70
     Davidson diagonalization with overlap
     ethr =  3.77E-10,  avg # of iterations =  4.1

     negative rho (up, down):  2.049E-03 0.000E+00

     total cpu time spent up to now is        3.8 secs

     total energy              =    -448.50972292 Ry
     estimated scf accuracy    <       0.00000042 Ry

     iteration # 27     ecut=    40.00 Ry     beta= 0.70
     Davidson diagonalization with overlap
     ethr =  3.77E-10,  avg # of iterations =  3.0

     negative rho (up, down):  2.049E-03 0.000E+00

     total cpu time spent up to now is        3.9 secs

     total energy              =    -448.50972294 Ry
     estimated scf accuracy    <       0.00000002 Ry

     iteration # 28     ecut=    40.00 Ry     beta= 0.70
     Davidson diagonalization with overlap
     ethr =  8.47E-11,  avg # of iterations =  3.2

     negative rho (up, down):  2.049E-03 0.000E+00

     total cpu time spent up to now is        4.1 secs

     End of self-consistent calculation

          k = 0.0000 0.0000 0.0000 (   739 PWs)   bands (ev):

   -69.2325 -39.0724 -35.1490 -35.1490 -35.1490 -15.1714 -15.1714 -15.1714
    10.2265  13.9476  13.9476  16.6693  16.6693  16.6693  19.0943  19.0943
    20.9853  20.9853

          k = 0.0000 0.0000 0.1111 (   743 PWs)   bands (ev):

   -69.2321 -39.0692 -35.1543 -35.1494 -35.1494 -15.2147 -15.1689 -15.1689
    10.4846  14.0727  14.0874  16.6509  16.6509  16.7245  18.9349  19.1542
    20.6421  20.6421

          k = 0.0000 0.0000 0.2222 (   735 PWs)   bands (ev):

   -69.2311 -39.0613 -35.1444 -35.1436 -35.1436 -15.3232 -15.1625 -15.1625
    11.2410  14.4282  14.4345  16.6144  16.6144  16.8732  18.4835  19.2718
    19.9062  19.9062

          k = 0.0000 0.0000 0.3333 (   731 PWs)   bands (ev):

   -69.2299 -39.0522 -35.1552 -35.1341 -35.1341 -15.4449 -15.1553 -15.1553
    12.3655  14.7196  14.9831  16.5949  16.5949  17.0617  17.8283  19.2012
    19.2012  19.2071

          k = 0.0000 0.0000 0.4444 (   732 PWs)   bands (ev):

   -69.2291 -39.0464 -35.1642 -35.1309 -35.1309 -15.5233 -15.1506 -15.1506
    13.5852  14.5697  15.5550  16.6006  16.6006  17.1839  17.1995  18.7766
    18.7766  18.8360

          k = 0.0000 0.1111 0.1111 (   736 PWs)   bands (ev):

   -69.2317 -39.0658 -35.1509 -35.1482 -35.1365 -15.2162 -15.2069 -15.1662
    10.7433  14.1895  14.2278  16.5308  16.6170  16.8545  18.9231  19.1128
    20.2889  20.3043

          k = 0.0000 0.1111 0.2222 (   733 PWs)   bands (ev):

   -69.2307 -39.0571 -35.1502 -35.1435 -35.1362 -15.3190 -15.2032 -15.1594
    11.4767  14.4904  14.5982  16.4237  16.5421  16.9762  18.5993  19.2139
    19.6225  19.7164

          k = 0.0000 0.1111 0.3333 (   736 PWs)   bands (ev):

   -69.2295 -39.0473 -35.1602 -35.1422 -35.1380 -15.4386 -15.1944 -15.1516
    12.5398  14.7725  15.0807  16.3923  16.4760  16.9807  18.0805  18.8585
    19.3011  19.4135

          k = 0.0000 0.1111 0.4444 (   732 PWs)   bands (ev):

   -69.2288 -39.0409 -35.1641 -35.1409 -35.1306 -15.5157 -15.1886 -15.1466
    13.6697  14.6123  15.5722  16.4191  16.4357  16.8732  17.6509  18.4599
    19.1605  19.2743

          k = 0.0000 0.2222 0.2222 (   722 PWs)   bands (ev):

   -69.2297 -39.0467 -35.1482 -35.1359 -35.1315 -15.3175 -15.2957 -15.1514
    12.1152  14.6200  15.0383  16.1818  16.4222  16.9280  18.7522  19.0541
    19.1837  19.5423

          k = 0.0000 0.2222 0.3333 (   737 PWs)   bands (ev):

   -69.2285 -39.0347 -35.1670 -35.1533 -35.1407 -15.4227 -15.2923 -15.1423
    12.9570  14.6666  15.5657  16.0469  16.4270  16.6441  18.5359  18.6708
    19.3988  19.6315

          k = 0.0000 0.2222 0.4444 (   732 PWs)   bands (ev):

   -69.2278 -39.0269 -35.1667 -35.1542 -35.1341 -15.4965 -15.2840 -15.1364
    13.7430  14.4750  15.9244  16.0670  16.3290  16.6754  18.2708  18.4410
    19.6296  19.8433

          k = 0.0000 0.3333 0.3333 (   748 PWs)   bands (ev):

   -69.2274 -39.0204 -35.1779 -35.1771 -35.1465 -15.4118 -15.3952 -15.1317
    13.3717  14.4237  15.7918  16.2078  16.2564  16.7313  18.6508  18.9955
    19.2792  20.0701

          k = 0.0000 0.3333 0.4444 (   729 PWs)   bands (ev):

   -69.2267 -39.0110 -35.1697 -35.1638 -35.1351 -15.4746 -15.3910 -15.1248
    13.6320  14.2002  15.7201  15.8714  16.7298  17.4921  18.4228  19.0591
    19.6354  20.4500

          k = 0.0000 0.4444 0.4444 (   736 PWs)   bands (ev):

   -69.2259 -39.0006 -35.1820 -35.1740 -35.1380 -15.4615 -15.4590 -15.1172
    13.4948  14.0241  15.5436  15.5946  17.5990  18.0868  18.9637  19.2255
    19.4481  20.8249

          k = 0.1111 0.1111 0.1111 (   736 PWs)   bands (ev):

   -69.2313 -39.0621 -35.1474 -35.1474 -35.1415 -15.2163 -15.2043 -15.2043
    10.9926  14.3342  14.3342  16.4938  16.4938  16.9342  19.0081  19.0081
    19.7862  20.6116

          k = 0.1111 0.1111 0.2222 (   737 PWs)   bands (ev):

   -69.2303 -39.0529 -35.1547 -35.1479 -35.1412 -15.3147 -15.2018 -15.1978
    11.7017  14.6367  14.6775  16.3487  16.3993  16.9363  18.7108  19.1624
    19.3952  19.8783

          k = 0.1111 0.1111 0.3333 (   734 PWs)   bands (ev):

   -69.2291 -39.0424 -35.1602 -35.1445 -35.1398 -15.4326 -15.1910 -15.1904
    12.7235  14.9310  15.0793  16.2735  16.3328  16.7961  18.2923  18.9511
    19.2052  19.5757

          k = 0.1111 0.1111 0.4444 (   740 PWs)   bands (ev):

   -69.2284 -39.0355 -35.1700 -35.1486 -35.1420 -15.5088 -15.1856 -15.1839
    13.7756  14.7041  15.5208  16.1111  16.5120  16.6857  17.9429  18.5676
    18.8190  19.8925

          k = 0.1111 0.2222 0.2222 (   732 PWs)   bands (ev):

   -69.2293 -39.0422 -35.1545 -35.1472 -35.1417 -15.3119 -15.2931 -15.1912
    12.3282  14.7940  15.0871  16.1263  16.2599  16.6779  18.8620  19.1606
    19.2838  19.6579

          k = 0.1111 0.2222 0.3333 (   734 PWs)   bands (ev):

   -69.2282 -39.0299 -35.1654 -35.1516 -35.1414 -15.4176 -15.2887 -15.1814
    13.1664  14.8588  15.5273  15.9805  16.2439  16.4080  18.7396  18.8207
    19.2847  19.9157

          k = 0.1111 0.2222 0.4444 (   733 PWs)   bands (ev):

   -69.2274 -39.0219 -35.1711 -35.1542 -35.1361 -15.4910 -15.2806 -15.1749
    13.9224  14.6451  15.7341  15.9134  16.2568  16.6469  18.4008  18.5871
    19.0750  20.5477

          k = 0.1111 0.3333 0.3333 (   735 PWs)   bands (ev):

   -69.2270 -39.0157 -35.1682 -35.1668 -35.1422 -15.4067 -15.3924 -15.1708
    13.6062  14.6098  15.7460  16.0279  16.2260  16.4982  18.6851  19.1623
    19.1842  20.4499

          k = 0.1111 0.3333 0.4444 (   728 PWs)   bands (ev):

   -69.2263 -39.0064 -35.1687 -35.1627 -35.1398 -15.4707 -15.3879 -15.1638
    13.8453  14.3835  15.6683  15.7762  16.6292  17.2680  18.4023  19.1049
    19.2535  20.7626

          k = 0.1111 0.4444 0.4444 (   736 PWs)   bands (ev):

   -69.2256 -38.9962 -35.1805 -35.1739 -35.1466 -15.4585 -15.4564 -15.1565
    13.7099  14.2117  15.5135  15.5558  17.5116  17.8909  18.5821  18.7305
    19.5488  21.0401

          k = 0.2222 0.2222 0.2222 (   736 PWs)   bands (ev):

   -69.2283 -39.0308 -35.1555 -35.1555 -35.1541 -15.3026 -15.2864 -15.2864
    12.9386  15.2202  15.2202  15.9894  15.9894  16.1583  19.0852  19.0852
    19.8234  19.8738

          k = 0.2222 0.2222 0.3333 (   732 PWs)   bands (ev):

   -69.2272 -39.0177 -35.1633 -35.1548 -35.1515 -15.4047 -15.2802 -15.2787
    13.7119  15.3167  15.3904  15.8335  15.9178  16.0637  18.9411  18.9900
    19.3256  20.2546

          k = 0.2222 0.2222 0.4444 (   743 PWs)   bands (ev):

   -69.2264 -39.0092 -35.1747 -35.1665 -35.1586 -15.4770 -15.2737 -15.2697
    14.3036  14.9125  15.5336  15.7022  16.0554  16.5752  18.4559  18.7691
    19.0959  20.5966

          k = 0.2222 0.3333 0.3333 (   728 PWs)   bands (ev):

   -69.2261 -39.0038 -35.1650 -35.1581 -35.1528 -15.3940 -15.3856 -15.2688
    14.2471  15.0331  15.6419  15.7189  15.9870  16.1122  18.7323  18.9024
    19.6235  20.3544

          k = 0.2222 0.3333 0.4444 (   724 PWs)   bands (ev):

   -69.2253 -38.9947 -35.1641 -35.1604 -35.1500 -15.4608 -15.3802 -15.2616
    14.4224  14.8044  15.5692  15.6196  16.2817  16.8117  18.3604  18.6764
    19.6672  20.7363

          k = 0.2222 0.4444 0.4444 (   724 PWs)   bands (ev):

   -69.2246 -38.9852 -35.1681 -35.1668 -35.1516 -15.4509 -15.4496 -15.2550
    14.3144  14.6765  15.4541  15.4882  17.1233  17.1640  18.2196  18.3904
    19.9467  21.0998

          k = 0.3333 0.3333 0.3333 (   717 PWs)   bands (ev):

   -69.2250 -38.9902 -35.1609 -35.1530 -35.1530 -15.3800 -15.3779 -15.3779
    15.0281  15.1629  15.5528  15.5528  15.9237  15.9237  18.6112  18.6112
    20.2746  20.2746

          k = 0.3333 0.3333 0.4444 (   724 PWs)   bands (ev):

   -69.2243 -38.9813 -35.1689 -35.1628 -35.1575 -15.4496 -15.3730 -15.3698
    14.9848  15.1027  15.5343  15.7389  15.8728  16.4867  18.2340  18.4579
    20.2679  20.8298

          k = 0.3333 0.4444 0.4444 (   718 PWs)   bands (ev):

   -69.2236 -38.9726 -35.1704 -35.1598 -35.1573 -15.4423 -15.4421 -15.3656
    15.0689  15.1843  15.4356  15.5476  16.4339  16.5101  18.0677  18.2581
    20.5839  21.1444

          k = 0.4444 0.4444 0.4444 (   702 PWs)   bands (ev):

   -69.2229 -38.9643 -35.1570 -35.1570 -35.1515 -15.4372 -15.4372 -15.4364
    15.3395  15.5058  15.5058  16.0368  16.0404  16.0404  18.0352  18.0352
    21.1712  21.1712

     the Fermi energy is    17.8469 ev

!    total energy              =    -448.50972294 Ry
     estimated scf accuracy    <          7.0E-09 Ry
     smearing contrib. (-TS)   =      -0.00004080 Ry
     internal energy E=F+TS    =    -448.50968213 Ry

     The total energy is F=E-TS. E is the sum of the following terms:
     one-electron contribution =    -151.38482812 Ry
     hartree contribution      =      91.73276221 Ry
     xc contribution           =     -52.90196149 Ry
     ewald contribution        =    -259.82070280 Ry
     one-center paw contrib.   =     -76.13495193 Ry

     convergence has been achieved in  28 iterations

     negative rho (up, down):  2.049E-03 0.000E+00

     Forces acting on atoms (cartesian axes, Ry/au):

     atom    1 type  1   force =     0.00000000    0.00000000    0.00000000
     atom    2 type  2   force =     0.00000000    0.00000000    0.00000000

     Total force =     0.000000     Total SCF correction =     0.000000


     Computing stress (Cartesian axis) and pressure


     negative rho (up, down):  2.049E-03 0.000E+00
          total   stress  (Ry/bohr**3)                   (kbar)     P=     -196.12
  -0.00133321   0.00000000   0.00000000         -196.12        0.00        0.00
   0.00000000  -0.00133321   0.00000000            0.00     -196.12        0.00
   0.00000000   0.00000000  -0.00133321            0.00        0.00     -196.12


     Writing all to output data dir ./TiFe.save/ :
     XML data file, charge density, pseudopotentials, collected wavefunctions

     init_run     :      0.35s CPU      0.37s WALL (       1 calls)
     electrons    :      3.29s CPU      3.52s WALL (       1 calls)
     forces       :      0.01s CPU      0.01s WALL (       1 calls)
     stress       :      0.04s CPU      0.04s WALL (       1 calls)

     Called by init_run:
     wfcinit      :      0.03s CPU      0.03s WALL (       1 calls)
     potinit      :      0.22s CPU      0.23s WALL (       1 calls)
     hinit0       :      0.09s CPU      0.10s WALL (       1 calls)

     Called by electrons:
     c_bands      :      1.87s CPU      1.95s WALL (      28 calls)
     sum_band     :      0.29s CPU      0.31s WALL (      28 calls)
     v_of_rho     :      0.03s CPU      0.03s WALL (      29 calls)
     newd         :      0.07s CPU      0.07s WALL (      29 calls)
     PAW_pot      :      1.04s CPU      1.13s WALL (      29 calls)
     mix_rho      :      0.01s CPU      0.01s WALL (      28 calls)

     Called by c_bands:
     init_us_2    :      0.03s CPU      0.03s WALL (    1062 calls)
     cegterg      :      1.73s CPU      1.81s WALL (     504 calls)

     Called by *egterg:
     cdiaghg      :      0.57s CPU      0.59s WALL (    2076 calls)
     h_psi        :      0.96s CPU      1.01s WALL (    2094 calls)
     s_psi        :      0.02s CPU      0.03s WALL (    2094 calls)
     g_psi        :      0.01s CPU      0.01s WALL (    1572 calls)

     Called by h_psi:
     h_psi:calbec :      0.06s CPU      0.06s WALL (    2094 calls)
     vloc_psi     :      0.87s CPU      0.92s WALL (    2094 calls)
     add_vuspsi   :      0.03s CPU      0.03s WALL (    2094 calls)

     General routines
     calbec       :      0.08s CPU      0.09s WALL (    2904 calls)
     fft          :      0.06s CPU      0.06s WALL (     400 calls)
     ffts         :      0.19s CPU      0.19s WALL (      57 calls)
     fftw         :      0.91s CPU      0.96s WALL (   54978 calls)
     interpolate  :      0.19s CPU      0.19s WALL (      29 calls)

     Parallel routines

     PWSCF        :      3.90s CPU      4.69s WALL


   This run was terminated on:  10:39: 0  28Oct2025            

=------------------------------------------------------------------------------=
   JOB DONE.
=------------------------------------------------------------------------------=
Note: The following floating-point exceptions are signalling: IEEE_UNDERFLOW_FLAG IEEE_DENORMAL
Note: The following floating-point exceptions are signalling: IEEE_UNDERFLOW_FLAG IEEE_DENORMAL
Note: The following floating-point exceptions are signalling: IEEE_UNDERFLOW_FLAG IEEE_DENORMAL
Note: The following floating-point exceptions are signalling: IEEE_UNDERFLOW_FLAG IEEE_DENORMAL
Note: The following floating-point exceptions are signalling: IEEE_UNDERFLOW_FLAG IEEE_DENORMAL
Note: The following floating-point exceptions are signalling: IEEE_UNDERFLOW_FLAG IEEE_DENORMAL
Note: The following floating-point exceptions are signalling: IEEE_UNDERFLOW_FLAG IEEE_DENORMAL
Note: The following floating-point exceptions are signalling: IEEE_UNDERFLOW_FLAG IEEE_DENORMAL
Note: The following floating-point exceptions are signalling: IEEE_UNDERFLOW_FLAG IEEE_DENORMAL
Note: The following floating-point exceptions are signalling: IEEE_UNDERFLOW_FLAG IEEE_DENORMAL
Note: The following floating-point exceptions are signalling: IEEE_UNDERFLOW_FLAG IEEE_DENORMAL
Note: The following floating-point exceptions are signalling: IEEE_UNDERFLOW_FLAG IEEE_DENORMAL
Note: The following floating-point exceptions are signalling: IEEE_UNDERFLOW_FLAG IEEE_DENORMAL
Note: The following floating-point exceptions are signalling: IEEE_UNDERFLOW_FLAG IEEE_DENORMAL
Note: The following floating-point exceptions are signalling: IEEE_UNDERFLOW_FLAG IEEE_DENORMAL
Note: The following floating-point exceptions are signalling: IEEE_UNDERFLOW_FLAG IEEE_DENORMAL
