
     Program PWSCF v.7.4 starts on 28Oct2025 at 10:39:59 

     This program is part of the open-source Quantum ESPRESSO suite
     for quantum simulation of materials; please cite
         "P. Giannozzi et al., J. Phys.:Condens. Matter 21 395502 (2009);
         "P. Giannozzi et al., J. Phys.:Condens. Matter 29 465901 (2017);
         "P. Giannozzi et al., J. Chem. Phys. 152 154105 (2020);
          URL http://www.quantum-espresso.org", 
     in publications or presentations arising from this work. More details at
     http://www.quantum-espresso.org/quote

     Parallel version (MPI & OpenMP), running on      16 processor cores
     Number of MPI processes:                16
     Threads/MPI process:                     1

     MPI processes distributed on     1 nodes
     230601 MiB available memory on the printing compute node when the environment starts

     Reading input from TiFe_ecutwfc_convergence/TiFe2_ecut140.in

     Current dimensions of program PWSCF are:
     Max number of different atomic species (ntypx) = 10
     Max number of k-points (npk) =  40000
     Max angular momentum in pseudopotentials (lmaxx) =  4
     file Fe.pbe-spn-kjpaw_psl.0.2.1.UPF: wavefunction(s)  3D renormalized

     IMPORTANT: XC functional enforced from input :
     Exchange-correlation= PBE
                           (   1   4   3   4   0   0   0)
     Any further DFT definition will be discarded
     Please, verify this is what you really want

     Message from routine setup:
     using ibrav=0 with symmetry is DISCOURAGED, use correct ibrav instead

     R & G space division:  proc/nbgrp/npool/nimage =      16
     Subspace diagonalization in iterative solution of the eigenvalue problem:
     a serial algorithm will be used


     Parallelization info
     --------------------
     sticks:   dense  smooth     PW     G-vecs:    dense   smooth      PW
     Min         107      85     25                 3351     2399     375
     Max         108      86     26                 3354     2402     378
     Sum        1725    1369    401                53643    38401    6031

     Using Slab Decomposition



     bravais-lattice index     =            0
     lattice parameter (alat)  =       5.5533  a.u.
     unit-cell volume          =     171.2590 (a.u.)^3
     number of atoms/cell      =            2
     number of atomic types    =            2
     number of electrons       =        28.00
     number of Kohn-Sham states=           18
     kinetic-energy cutoff     =     140.0000  Ry
     charge density cutoff     =     700.0000  Ry
     scf convergence threshold =      1.0E-08
     mixing beta               =       0.7000
     number of iterations used =            8  plain     mixing
     Exchange-correlation= PBE
                           (   1   4   3   4   0   0   0)

     celldm(1)=   5.553300  celldm(2)=   0.000000  celldm(3)=   0.000000
     celldm(4)=   0.000000  celldm(5)=   0.000000  celldm(6)=   0.000000

     crystal axes: (cart. coord. in units of alat)
               a(1) = (   1.000000   0.000000   0.000000 )  
               a(2) = (   0.000000   1.000000   0.000000 )  
               a(3) = (   0.000000   0.000000   1.000000 )  

     reciprocal axes: (cart. coord. in units 2 pi/alat)
               b(1) = (  1.000000  0.000000  0.000000 )  
               b(2) = (  0.000000  1.000000  0.000000 )  
               b(3) = (  0.000000  0.000000  1.000000 )  


     PseudoPot. # 1 for Fe read from file:
     ./Fe.pbe-spn-kjpaw_psl.0.2.1.UPF
     MD5 check sum: e86618425769142926afa95317d90200
     Pseudo is Projector augmented-wave + core cor, Zval = 16.0
     Generated using "atomic" code by A. Dal Corso  v.5.0.99 svn rev. 10869
     Shape of augmentation charge: PSQ
     Using radial grid of 1191 points,  6 beta functions with: 
                l(1) =   0
                l(2) =   0
                l(3) =   1
                l(4) =   1
                l(5) =   2
                l(6) =   2
     Q(r) pseudized with 0 coefficients 


     PseudoPot. # 2 for Ti read from file:
     ./Ti_pbe_v1.4.uspp.F.UPF
     MD5 check sum: 88a00a6731bd790ddea75d31a80cb452
     Pseudo is Ultrasoft + core correction, Zval = 12.0
     Generated by new atomic code, or converted to UPF format
     Using radial grid of  851 points,  6 beta functions with: 
                l(1) =   0
                l(2) =   0
                l(3) =   1
                l(4) =   1
                l(5) =   2
                l(6) =   2
     Q(r) pseudized with  6 coefficients,  rinner =    1.000   1.000   1.000
                                                       1.000   1.000

     atomic species   valence    mass     pseudopotential
     Fe               16.00    55.84500     Fe( 1.00)
     Ti               12.00    47.86700     Ti( 1.00)

     48 Sym. Ops., with inversion, found



   Cartesian axes

     site n.     atom                  positions (alat units)
         1        Fe     tau(   1) = (   0.5000000   0.5000000   0.5000000  )
         2        Ti     tau(   2) = (   0.0000000   0.0000000   0.0000000  )

     number of k points=    35  Marzari-Vanderbilt smearing, width (Ry)=  0.0050
                       cart. coord. in units 2pi/alat
        k(    1) = (   0.0000000   0.0000000   0.0000000), wk =   0.0027435
        k(    2) = (   0.0000000   0.0000000   0.1111111), wk =   0.0164609
        k(    3) = (   0.0000000   0.0000000   0.2222222), wk =   0.0164609
        k(    4) = (   0.0000000   0.0000000   0.3333333), wk =   0.0164609
        k(    5) = (   0.0000000   0.0000000   0.4444444), wk =   0.0164609
        k(    6) = (   0.0000000   0.1111111   0.1111111), wk =   0.0329218
        k(    7) = (   0.0000000   0.1111111   0.2222222), wk =   0.0658436
        k(    8) = (   0.0000000   0.1111111   0.3333333), wk =   0.0658436
        k(    9) = (   0.0000000   0.1111111   0.4444444), wk =   0.0658436
        k(   10) = (   0.0000000   0.2222222   0.2222222), wk =   0.0329218
        k(   11) = (   0.0000000   0.2222222   0.3333333), wk =   0.0658436
        k(   12) = (   0.0000000   0.2222222   0.4444444), wk =   0.0658436
        k(   13) = (   0.0000000   0.3333333   0.3333333), wk =   0.0329218
        k(   14) = (   0.0000000   0.3333333   0.4444444), wk =   0.0658436
        k(   15) = (   0.0000000   0.4444444   0.4444444), wk =   0.0329218
        k(   16) = (   0.1111111   0.1111111   0.1111111), wk =   0.0219479
        k(   17) = (   0.1111111   0.1111111   0.2222222), wk =   0.0658436
        k(   18) = (   0.1111111   0.1111111   0.3333333), wk =   0.0658436
        k(   19) = (   0.1111111   0.1111111   0.4444444), wk =   0.0658436
        k(   20) = (   0.1111111   0.2222222   0.2222222), wk =   0.0658436
        k(   21) = (   0.1111111   0.2222222   0.3333333), wk =   0.1316872
        k(   22) = (   0.1111111   0.2222222   0.4444444), wk =   0.1316872
        k(   23) = (   0.1111111   0.3333333   0.3333333), wk =   0.0658436
        k(   24) = (   0.1111111   0.3333333   0.4444444), wk =   0.1316872
        k(   25) = (   0.1111111   0.4444444   0.4444444), wk =   0.0658436
        k(   26) = (   0.2222222   0.2222222   0.2222222), wk =   0.0219479
        k(   27) = (   0.2222222   0.2222222   0.3333333), wk =   0.0658436
        k(   28) = (   0.2222222   0.2222222   0.4444444), wk =   0.0658436
        k(   29) = (   0.2222222   0.3333333   0.3333333), wk =   0.0658436
        k(   30) = (   0.2222222   0.3333333   0.4444444), wk =   0.1316872
        k(   31) = (   0.2222222   0.4444444   0.4444444), wk =   0.0658436
        k(   32) = (   0.3333333   0.3333333   0.3333333), wk =   0.0219479
        k(   33) = (   0.3333333   0.3333333   0.4444444), wk =   0.0658436
        k(   34) = (   0.3333333   0.4444444   0.4444444), wk =   0.0658436
        k(   35) = (   0.4444444   0.4444444   0.4444444), wk =   0.0219479

     Dense  grid:    53643 G-vectors     FFT dimensions: (  48,  48,  48)

     Smooth grid:    38401 G-vectors     FFT dimensions: (  45,  45,  45)

     Estimated max dynamical RAM per process >      19.62 MB

     Estimated total dynamical RAM >     313.85 MB

     Check: negative core charge=   -0.000019

     Initial potential from superposition of free atoms

     starting charge      26.9995, renormalised to      28.0000

     negative rho (up, down):  1.248E-03 0.000E+00
     Starting wfcs are   23 randomized atomic wfcs
     Checking if some PAW data can be deallocated... 

     total cpu time spent up to now is        1.0 secs

     per-process dynamical memory:   125.7 Mb

     Self-consistent Calculation

     iteration #  1     ecut=   140.00 Ry     beta= 0.70
     Davidson diagonalization with overlap
     ethr =  1.00E-02,  avg # of iterations =  2.1

     negative rho (up, down):  2.358E-04 0.000E+00

     total cpu time spent up to now is        1.4 secs

     WARNING: integrated charge=    28.00077054, expected=    28.00000000

     total energy              =    -434.87433961 Ry
     estimated scf accuracy    <      17.48289567 Ry

     iteration #  2     ecut=   140.00 Ry     beta= 0.70
     Davidson diagonalization with overlap
     ethr =  1.00E-02,  avg # of iterations =  6.1

     negative rho (up, down):  7.781E-05 0.000E+00

     total cpu time spent up to now is        2.2 secs

     WARNING: integrated charge=    28.00058784, expected=    28.00000000

     total energy              =    -448.52122795 Ry
     estimated scf accuracy    <      66.12343524 Ry

     iteration #  3     ecut=   140.00 Ry     beta= 0.70
     Davidson diagonalization with overlap
     ethr =  1.00E-02,  avg # of iterations =  3.1

     negative rho (up, down):  1.702E-04 0.000E+00

     total cpu time spent up to now is        2.7 secs

     WARNING: integrated charge=    28.00046891, expected=    28.00000000

     total energy              =    -448.59448771 Ry
     estimated scf accuracy    <      16.78590667 Ry

     iteration #  4     ecut=   140.00 Ry     beta= 0.70
     Davidson diagonalization with overlap
     ethr =  1.00E-02,  avg # of iterations =  2.2

     negative rho (up, down):  1.780E-04 0.000E+00

     total cpu time spent up to now is        3.2 secs

     WARNING: integrated charge=    28.00045593, expected=    28.00000000

     total energy              =    -449.11480066 Ry
     estimated scf accuracy    <       4.69951616 Ry

     iteration #  5     ecut=   140.00 Ry     beta= 0.70
     Davidson diagonalization with overlap
     ethr =  1.00E-02,  avg # of iterations =  1.0

     negative rho (up, down):  2.150E-04 0.000E+00

     total cpu time spent up to now is        3.5 secs

     WARNING: integrated charge=    28.00042519, expected=    28.00000000

     total energy              =    -449.11070982 Ry
     estimated scf accuracy    <       4.29790757 Ry

     iteration #  6     ecut=   140.00 Ry     beta= 0.70
     Davidson diagonalization with overlap
     ethr =  1.00E-02,  avg # of iterations =  1.1

     negative rho (up, down):  1.058E-03 0.000E+00

     total cpu time spent up to now is        3.9 secs

     WARNING: integrated charge=    28.00020594, expected=    28.00000000

     total energy              =    -447.87752348 Ry
     estimated scf accuracy    <       4.56753926 Ry

     iteration #  7     ecut=   140.00 Ry     beta= 0.70
     Davidson diagonalization with overlap
     ethr =  1.00E-02,  avg # of iterations =  3.4

     negative rho (up, down):  9.630E-04 0.000E+00

     total cpu time spent up to now is        4.4 secs

     WARNING: integrated charge=    28.00018727, expected=    28.00000000

     total energy              =    -448.59995877 Ry
     estimated scf accuracy    <       4.35516093 Ry

     iteration #  8     ecut=   140.00 Ry     beta= 0.70
     Davidson diagonalization with overlap
     ethr =  1.00E-02,  avg # of iterations =  1.0

     negative rho (up, down):  7.119E-04 0.000E+00

     total cpu time spent up to now is        4.7 secs

     WARNING: integrated charge=    28.00013950, expected=    28.00000000

     total energy              =    -448.38967212 Ry
     estimated scf accuracy    <       1.54582783 Ry

     iteration #  9     ecut=   140.00 Ry     beta= 0.70
     Davidson diagonalization with overlap
     ethr =  5.52E-03,  avg # of iterations =  1.9

     negative rho (up, down):  7.098E-04 0.000E+00

     total cpu time spent up to now is        5.1 secs

     WARNING: integrated charge=    28.00013551, expected=    28.00000000

     total energy              =    -448.62347117 Ry
     estimated scf accuracy    <       0.47186808 Ry

     iteration # 10     ecut=   140.00 Ry     beta= 0.70
     Davidson diagonalization with overlap
     ethr =  1.69E-03,  avg # of iterations =  1.2

     negative rho (up, down):  6.626E-04 0.000E+00

     total cpu time spent up to now is        5.5 secs

     WARNING: integrated charge=    28.00010064, expected=    28.00000000

     total energy              =    -448.67566415 Ry
     estimated scf accuracy    <       0.55561275 Ry

     iteration # 11     ecut=   140.00 Ry     beta= 0.70
     Davidson diagonalization with overlap
     ethr =  1.69E-03,  avg # of iterations =  1.2

     negative rho (up, down):  6.452E-04 0.000E+00

     total cpu time spent up to now is        5.9 secs

     WARNING: integrated charge=    28.00002216, expected=    28.00000000

     total energy              =    -448.65986823 Ry
     estimated scf accuracy    <       1.33393482 Ry

     iteration # 12     ecut=   140.00 Ry     beta= 0.70
     Davidson diagonalization with overlap
     ethr =  1.69E-03,  avg # of iterations =  1.0

     negative rho (up, down):  6.942E-04 0.000E+00

     total cpu time spent up to now is        6.3 secs

     WARNING: integrated charge=    28.00002339, expected=    28.00000000

     total energy              =    -448.62961964 Ry
     estimated scf accuracy    <       0.90452668 Ry

     iteration # 13     ecut=   140.00 Ry     beta= 0.70
     Davidson diagonalization with overlap
     ethr =  1.69E-03,  avg # of iterations =  1.0

     negative rho (up, down):  6.886E-04 0.000E+00

     total cpu time spent up to now is        6.6 secs

     WARNING: integrated charge=    27.99999212, expected=    28.00000000

     total energy              =    -448.62328012 Ry
     estimated scf accuracy    <       0.48449419 Ry

     iteration # 14     ecut=   140.00 Ry     beta= 0.70
     Davidson diagonalization with overlap
     ethr =  1.69E-03,  avg # of iterations =  1.0

     negative rho (up, down):  7.004E-04 0.000E+00

     total cpu time spent up to now is        7.0 secs

     WARNING: integrated charge=    27.99999384, expected=    28.00000000

     total energy              =    -448.63481955 Ry
     estimated scf accuracy    <       0.31416681 Ry

     iteration # 15     ecut=   140.00 Ry     beta= 0.70
     Davidson diagonalization with overlap
     ethr =  1.12E-03,  avg # of iterations =  1.0

     negative rho (up, down):  6.897E-04 0.000E+00

     total cpu time spent up to now is        7.4 secs

     WARNING: integrated charge=    27.99998841, expected=    28.00000000

     total energy              =    -448.63700330 Ry
     estimated scf accuracy    <       0.42499456 Ry

     iteration # 16     ecut=   140.00 Ry     beta= 0.70
     Davidson diagonalization with overlap
     ethr =  1.12E-03,  avg # of iterations =  1.0

     negative rho (up, down):  7.108E-04 0.000E+00

     total cpu time spent up to now is        7.8 secs

     WARNING: integrated charge=    27.99999121, expected=    28.00000000

     total energy              =    -448.63525724 Ry
     estimated scf accuracy    <       0.39241735 Ry

     iteration # 17     ecut=   140.00 Ry     beta= 0.70
     Davidson diagonalization with overlap
     ethr =  1.12E-03,  avg # of iterations =  1.0

     negative rho (up, down):  9.055E-04 0.000E+00

     total cpu time spent up to now is        8.1 secs

     WARNING: integrated charge=    27.99998333, expected=    28.00000000

     total energy              =    -448.56197183 Ry
     estimated scf accuracy    <       0.43378293 Ry

     iteration # 18     ecut=   140.00 Ry     beta= 0.70
     Davidson diagonalization with overlap
     ethr =  1.12E-03,  avg # of iterations =  1.7

     negative rho (up, down):  9.012E-04 0.000E+00

     total cpu time spent up to now is        8.5 secs

     WARNING: integrated charge=    28.00000658, expected=    28.00000000

     total energy              =    -448.58274430 Ry
     estimated scf accuracy    <       0.01967870 Ry

     iteration # 19     ecut=   140.00 Ry     beta= 0.70
     Davidson diagonalization with overlap
     ethr =  7.03E-05,  avg # of iterations =  4.3

     negative rho (up, down):  8.932E-04 0.000E+00

     total cpu time spent up to now is        9.0 secs

     WARNING: integrated charge=    27.99999704, expected=    28.00000000

     total energy              =    -448.58665829 Ry
     estimated scf accuracy    <       0.00179477 Ry

     iteration # 20     ecut=   140.00 Ry     beta= 0.70
     Davidson diagonalization with overlap
     ethr =  6.41E-06,  avg # of iterations =  2.7

     negative rho (up, down):  9.040E-04 0.000E+00

     total cpu time spent up to now is        9.5 secs

     WARNING: integrated charge=    27.99999278, expected=    28.00000000

     total energy              =    -448.58614764 Ry
     estimated scf accuracy    <       0.00773625 Ry

     iteration # 21     ecut=   140.00 Ry     beta= 0.70
     Davidson diagonalization with overlap
     ethr =  6.41E-06,  avg # of iterations =  2.4

     negative rho (up, down):  8.998E-04 0.000E+00

     total cpu time spent up to now is        9.9 secs

     total energy              =    -448.58658047 Ry
     estimated scf accuracy    <       0.00009006 Ry

     iteration # 22     ecut=   140.00 Ry     beta= 0.70
     Davidson diagonalization with overlap
     ethr =  3.22E-07,  avg # of iterations =  3.8

     negative rho (up, down):  9.055E-04 0.000E+00

     total cpu time spent up to now is       10.4 secs

     total energy              =    -448.58662358 Ry
     estimated scf accuracy    <       0.00004798 Ry

     iteration # 23     ecut=   140.00 Ry     beta= 0.70
     Davidson diagonalization with overlap
     ethr =  1.71E-07,  avg # of iterations =  2.0

     negative rho (up, down):  9.057E-04 0.000E+00

     total cpu time spent up to now is       10.8 secs

     total energy              =    -448.58662813 Ry
     estimated scf accuracy    <       0.00000083 Ry

     iteration # 24     ecut=   140.00 Ry     beta= 0.70
     Davidson diagonalization with overlap
     ethr =  2.95E-09,  avg # of iterations =  5.3

     negative rho (up, down):  9.056E-04 0.000E+00

     total cpu time spent up to now is       11.4 secs

     total energy              =    -448.58662940 Ry
     estimated scf accuracy    <       0.00000108 Ry

     iteration # 25     ecut=   140.00 Ry     beta= 0.70
     Davidson diagonalization with overlap
     ethr =  2.95E-09,  avg # of iterations =  1.4

     negative rho (up, down):  9.056E-04 0.000E+00

     total cpu time spent up to now is       11.8 secs

     total energy              =    -448.58662948 Ry
     estimated scf accuracy    <       0.00000002 Ry

     iteration # 26     ecut=   140.00 Ry     beta= 0.70
     Davidson diagonalization with overlap
     ethr =  8.28E-11,  avg # of iterations =  4.3

     negative rho (up, down):  9.058E-04 0.000E+00

     total cpu time spent up to now is       12.3 secs

     End of self-consistent calculation

          k = 0.0000 0.0000 0.0000 (  4801 PWs)   bands (ev):

   -69.2040 -39.1404 -35.2659 -35.2659 -35.2659 -15.2353 -15.2353 -15.2353
    10.1530  13.8669  13.8669  16.6616  16.6616  16.6616  19.0047  19.0047
    20.9453  20.9453

          k = 0.0000 0.0000 0.1111 (  4821 PWs)   bands (ev):

   -69.2036 -39.1373 -35.2696 -35.2653 -35.2653 -15.2784 -15.2327 -15.2327
    10.4102  13.9909  13.9988  16.6431  16.6431  16.7177  18.8476  19.0623
    20.5827  20.5827

          k = 0.0000 0.0000 0.2222 (  4801 PWs)   bands (ev):

   -69.2026 -39.1293 -35.2789 -35.2639 -35.2639 -15.3865 -15.2262 -15.2262
    11.1438  14.3129  14.3488  16.6065  16.6065  16.8691  18.4026  19.1659
    19.8176  19.8176

          k = 0.0000 0.0000 0.3333 (  4789 PWs)   bands (ev):

   -69.2014 -39.1203 -35.2895 -35.2623 -35.2623 -15.5075 -15.2187 -15.2187
    12.2345  14.5613  14.8886  16.5886  16.5886  17.0616  17.7588  19.0701
    19.0902  19.0902

          k = 0.0000 0.0000 0.4444 (  4805 PWs)   bands (ev):

   -69.2006 -39.1144 -35.2963 -35.2612 -35.2612 -15.5854 -15.2139 -15.2139
    13.4364  14.3575  15.4425  16.5972  16.5972  17.1344  17.2031  18.6547
    18.6547  18.6888

          k = 0.0000 0.1111 0.1111 (  4805 PWs)   bands (ev):

   -69.2032 -39.1338 -35.2710 -35.2676 -35.2648 -15.2797 -15.2708 -15.2300
    10.6596  14.1028  14.1346  16.5213  16.6077  16.8507  18.8367  19.0207
    20.2149  20.2232

          k = 0.0000 0.1111 0.2222 (  4791 PWs)   bands (ev):

   -69.2021 -39.1252 -35.2798 -35.2678 -35.2634 -15.3822 -15.2668 -15.2230
    11.3673  14.3909  14.4888  16.4128  16.5288  16.9762  18.5223  19.1068
    19.5191  19.6221

          k = 0.0000 0.1111 0.3333 (  4791 PWs)   bands (ev):

   -69.2010 -39.1154 -35.2906 -35.2672 -35.2618 -15.5013 -15.2578 -15.2150
    12.4072  14.6304  14.9695  16.3814  16.4518  16.9785  18.0221  18.7291
    19.1999  19.2933

          k = 0.0000 0.1111 0.4444 (  4805 PWs)   bands (ev):

   -69.2002 -39.1090 -35.2976 -35.2668 -35.2607 -15.5781 -15.2520 -15.2099
    13.5284  14.4161  15.4512  16.3730  16.4281  16.8601  17.6154  18.3323
    19.0626  19.1223

          k = 0.0000 0.2222 0.2222 (  4791 PWs)   bands (ev):

   -69.2011 -39.1148 -35.2838 -35.2757 -35.2620 -15.3802 -15.3597 -15.2149
    11.9852  14.5179  14.9059  16.1681  16.3908  16.9255  18.6823  18.9281
    19.0777  19.4449

          k = 0.0000 0.2222 0.3333 (  4797 PWs)   bands (ev):

   -69.2000 -39.1029 -35.2936 -35.2795 -35.2605 -15.4858 -15.3559 -15.2057
    12.8344  14.5597  15.4149  16.0316  16.3567  16.6323  18.4525  18.5682
    19.2727  19.5515

          k = 0.0000 0.2222 0.4444 (  4798 PWs)   bands (ev):

   -69.1992 -39.0951 -35.3011 -35.2809 -35.2595 -15.5594 -15.3476 -15.1997
    13.6335  14.3474  15.7687  16.0521  16.3091  16.5255  18.1622  18.3868
    19.4421  19.7737

          k = 0.0000 0.3333 0.3333 (  4773 PWs)   bands (ev):

   -69.1988 -39.0886 -35.2985 -35.2921 -35.2591 -15.4747 -15.4591 -15.1951
    13.2772  14.3425  15.7745  16.0819  16.1901  16.5975  18.4986  18.9573
    19.1305  20.0108

          k = 0.0000 0.3333 0.4444 (  4797 PWs)   bands (ev):

   -69.1981 -39.0793 -35.3051 -35.2969 -35.2581 -15.5382 -15.4549 -15.1881
    13.5432  14.1322  15.7016  15.8513  16.5380  17.2529  18.2580  19.0238
    19.3899  20.4028

          k = 0.0000 0.4444 0.4444 (  4768 PWs)   bands (ev):

   -69.1973 -39.0689 -35.3080 -35.3070 -35.2572 -15.5254 -15.5230 -15.1805
    13.4111  13.9880  15.5241  15.5748  17.4121  17.8951  18.6535  18.8992
    19.4003  20.7936

          k = 0.1111 0.1111 0.1111 (  4800 PWs)   bands (ev):

   -69.2028 -39.1302 -35.2704 -35.2704 -35.2660 -15.2796 -15.2681 -15.2681
    10.9029  14.2399  14.2399  16.4827  16.4827  16.9330  18.9194  18.9194
    19.6875  20.5512

          k = 0.1111 0.1111 0.2222 (  4798 PWs)   bands (ev):

   -69.2017 -39.1210 -35.2801 -35.2689 -35.2663 -15.3779 -15.2653 -15.2614
    11.5901  14.5392  14.5602  16.3347  16.3839  16.9341  18.6339  19.0556
    19.2935  19.7872

          k = 0.1111 0.1111 0.3333 (  4800 PWs)   bands (ev):

   -69.2006 -39.1105 -35.2914 -35.2672 -35.2664 -15.4954 -15.2545 -15.2538
    12.5888  14.7778  14.9750  16.2513  16.3097  16.7824  18.2366  18.8269
    19.0885  19.4698

          k = 0.1111 0.1111 0.4444 (  4800 PWs)   bands (ev):

   -69.1998 -39.1037 -35.2987 -35.2665 -35.2661 -15.5712 -15.2488 -15.2474
    13.6447  14.5219  15.4013  16.0884  16.4643  16.6559  17.9100  18.4427
    18.6929  19.7760

          k = 0.1111 0.2222 0.2222 (  4790 PWs)   bands (ev):

   -69.2007 -39.1103 -35.2832 -35.2766 -35.2666 -15.3748 -15.3569 -15.2547
    12.2044  14.6854  14.9562  16.1098  16.2318  16.6658  18.7810  19.0556
    19.1792  19.5657

          k = 0.1111 0.2222 0.3333 (  4796 PWs)   bands (ev):

   -69.1996 -39.0981 -35.2937 -35.2794 -35.2657 -15.4806 -15.3522 -15.2448
    13.0402  14.7477  15.3798  15.9602  16.1843  16.3785  18.6605  18.7094
    19.1640  19.8259

          k = 0.1111 0.2222 0.4444 (  4800 PWs)   bands (ev):

   -69.1988 -39.0901 -35.3016 -35.2803 -35.2650 -15.5539 -15.3441 -15.2382
    13.8091  14.5242  15.5938  15.8929  16.2208  16.4969  18.2711  18.5495
    18.9341  20.4575

          k = 0.1111 0.3333 0.3333 (  4787 PWs)   bands (ev):

   -69.1984 -39.0839 -35.2978 -35.2923 -35.2644 -15.4697 -15.4562 -15.2341
    13.4984  14.5254  15.7245  16.0003  16.0456  16.3676  18.5348  19.0229
    19.1247  20.3731

          k = 0.1111 0.3333 0.4444 (  4784 PWs)   bands (ev):

   -69.1977 -39.0747 -35.3049 -35.2963 -35.2635 -15.5342 -15.4517 -15.2270
    13.7460  14.3196  15.6447  15.7441  16.4460  17.0250  18.2492  18.9234
    19.2087  20.7260

          k = 0.1111 0.4444 0.4444 (  4772 PWs)   bands (ev):

   -69.1969 -39.0645 -35.3073 -35.3064 -35.2626 -15.5222 -15.5202 -15.2197
    13.6146  14.1773  15.4906  15.5316  17.3098  17.6414  18.3853  18.4778
    19.5193  20.9968

          k = 0.2222 0.2222 0.2222 (  4800 PWs)   bands (ev):

   -69.1997 -39.0989 -35.2815 -35.2815 -35.2752 -15.3655 -15.3499 -15.3499
    12.8009  15.0892  15.0892  15.9658  15.9658  16.1369  18.9759  18.9759
    19.7335  19.8019

          k = 0.2222 0.2222 0.3333 (  4793 PWs)   bands (ev):

   -69.1986 -39.0859 -35.2940 -35.2797 -35.2781 -15.4678 -15.3438 -15.3418
    13.5722  15.2107  15.2563  15.8009  15.8793  15.9765  18.8096  18.8385
    19.2746  20.2075

          k = 0.2222 0.2222 0.4444 (  4788 PWs)   bands (ev):

   -69.1978 -39.0774 -35.3028 -35.2794 -35.2785 -15.5399 -15.3366 -15.3335
    14.1886  14.8274  15.3913  15.6745  16.0218  16.3837  18.3152  18.6276
    19.0638  20.5597

          k = 0.2222 0.3333 0.3333 (  4791 PWs)   bands (ev):

   -69.1974 -39.0721 -35.2959 -35.2926 -35.2780 -15.4570 -15.4491 -15.3319
    14.1081  14.9634  15.6087  15.6571  15.8761  15.9302  18.5790  18.7299
    19.5876  20.3143

          k = 0.2222 0.3333 0.4444 (  4790 PWs)   bands (ev):

   -69.1967 -39.0630 -35.3042 -35.2947 -35.2773 -15.5240 -15.4436 -15.3247
    14.2952  14.7587  15.5186  15.5653  16.1328  16.5576  18.2059  18.5105
    19.6341  20.6970

          k = 0.2222 0.4444 0.4444 (  4769 PWs)   bands (ev):

   -69.1959 -39.0535 -35.3053 -35.3048 -35.2762 -15.5142 -15.5130 -15.3180
    14.1816  14.6484  15.4207  15.4504  16.8822  16.9027  18.0405  18.2422
    19.9148  21.0514

          k = 0.3333 0.3333 0.3333 (  4797 PWs)   bands (ev):

   -69.1963 -39.0585 -35.2939 -35.2939 -35.2926 -15.4434 -15.4409 -15.4409
    14.8410  15.1326  15.5032  15.5032  15.7489  15.7489  18.4425  18.4425
    20.2357  20.2357

          k = 0.3333 0.3333 0.4444 (  4783 PWs)   bands (ev):

   -69.1955 -39.0496 -35.3035 -35.2933 -35.2925 -15.5125 -15.4355 -15.4331
    14.8624  15.0704  15.4790  15.5727  15.7995  16.2223  18.0782  18.2968
    20.2291  20.7870

          k = 0.3333 0.4444 0.4444 (  4769 PWs)   bands (ev):

   -69.1948 -39.0409 -35.3032 -35.3030 -35.2917 -15.5051 -15.5049 -15.4282
    14.9324  15.1372  15.3878  15.4791  16.1954  16.2710  17.9126  18.1058
    20.5430  21.0947

          k = 0.4444 0.4444 0.4444 (  4758 PWs)   bands (ev):

   -69.1941 -39.0327 -35.3019 -35.3017 -35.3017 -15.4995 -15.4995 -15.4990
    15.2788  15.4658  15.4658  15.7971  15.7971  15.8051  17.8843  17.8843
    21.1210  21.1210

     the Fermi energy is    17.6493 ev

!    total energy              =    -448.58662948 Ry
     estimated scf accuracy    <          7.6E-09 Ry
     smearing contrib. (-TS)   =      -0.00008120 Ry
     internal energy E=F+TS    =    -448.58654828 Ry

     The total energy is F=E-TS. E is the sum of the following terms:
     one-electron contribution =    -151.35301296 Ry
     hartree contribution      =      91.63008953 Ry
     xc contribution           =     -52.88917993 Ry
     ewald contribution        =    -259.82070277 Ry
     one-center paw contrib.   =     -76.15374215 Ry

     convergence has been achieved in  26 iterations

     negative rho (up, down):  9.058E-04 0.000E+00

     Forces acting on atoms (cartesian axes, Ry/au):

     atom    1 type  1   force =     0.00000000    0.00000000    0.00000000
     atom    2 type  2   force =     0.00000000    0.00000000    0.00000000

     Total force =     0.000000     Total SCF correction =     0.000000


     Computing stress (Cartesian axis) and pressure


     negative rho (up, down):  9.058E-04 0.000E+00
          total   stress  (Ry/bohr**3)                   (kbar)     P=       31.07
   0.00021124   0.00000000   0.00000000           31.07        0.00        0.00
   0.00000000   0.00021124   0.00000000            0.00       31.07        0.00
   0.00000000   0.00000000   0.00021124            0.00        0.00       31.07


     Writing all to output data dir ./TiFe.save/ :
     XML data file, charge density, pseudopotentials, collected wavefunctions

     init_run     :      0.73s CPU      0.74s WALL (       1 calls)
     electrons    :     11.07s CPU     11.40s WALL (       1 calls)
     forces       :      0.05s CPU      0.05s WALL (       1 calls)
     stress       :      0.23s CPU      0.24s WALL (       1 calls)

     Called by init_run:
     wfcinit      :      0.16s CPU      0.17s WALL (       1 calls)
     potinit      :      0.15s CPU      0.15s WALL (       1 calls)
     hinit0       :      0.38s CPU      0.38s WALL (       1 calls)

     Called by electrons:
     c_bands      :      7.76s CPU      7.95s WALL (      26 calls)
     sum_band     :      1.86s CPU      1.90s WALL (      26 calls)
     v_of_rho     :      0.07s CPU      0.08s WALL (      27 calls)
     newd         :      0.45s CPU      0.46s WALL (      27 calls)
     PAW_pot      :      0.94s CPU      0.97s WALL (      27 calls)
     mix_rho      :      0.02s CPU      0.02s WALL (      26 calls)

     Called by c_bands:
     init_us_2    :      0.15s CPU      0.16s WALL (    1925 calls)
     cegterg      :      7.44s CPU      7.62s WALL (     910 calls)

     Called by *egterg:
     cdiaghg      :      0.85s CPU      0.88s WALL (    2952 calls)
     h_psi        :      5.89s CPU      6.03s WALL (    2987 calls)
     s_psi        :      0.11s CPU      0.11s WALL (    2987 calls)
     g_psi        :      0.02s CPU      0.02s WALL (    2042 calls)

     Called by h_psi:
     h_psi:calbec :      0.23s CPU      0.24s WALL (    2987 calls)
     vloc_psi     :      5.53s CPU      5.67s WALL (    2987 calls)
     add_vuspsi   :      0.11s CPU      0.11s WALL (    2987 calls)

     General routines
     calbec       :      0.35s CPU      0.36s WALL (    4492 calls)
     fft          :      0.38s CPU      0.38s WALL (     374 calls)
     ffts         :      0.11s CPU      0.11s WALL (      53 calls)
     fftw         :      6.17s CPU      6.32s WALL (   95986 calls)
     interpolate  :      0.11s CPU      0.11s WALL (      27 calls)

     Parallel routines

     PWSCF        :     12.36s CPU     14.09s WALL


   This run was terminated on:  10:40:13  28Oct2025            

=------------------------------------------------------------------------------=
   JOB DONE.
=------------------------------------------------------------------------------=
Note: The following floating-point exceptions are signalling: IEEE_UNDERFLOW_FLAG IEEE_DENORMAL
Note: The following floating-point exceptions are signalling: IEEE_UNDERFLOW_FLAG IEEE_DENORMAL
Note: The following floating-point exceptions are signalling: IEEE_UNDERFLOW_FLAG IEEE_DENORMAL
Note: The following floating-point exceptions are signalling: IEEE_UNDERFLOW_FLAG IEEE_DENORMAL
Note: The following floating-point exceptions are signalling: IEEE_UNDERFLOW_FLAG IEEE_DENORMAL
Note: The following floating-point exceptions are signalling: IEEE_UNDERFLOW_FLAG IEEE_DENORMAL
Note: The following floating-point exceptions are signalling: IEEE_UNDERFLOW_FLAG IEEE_DENORMAL
Note: The following floating-point exceptions are signalling: IEEE_UNDERFLOW_FLAG IEEE_DENORMAL
Note: The following floating-point exceptions are signalling: IEEE_UNDERFLOW_FLAG IEEE_DENORMAL
Note: The following floating-point exceptions are signalling: IEEE_UNDERFLOW_FLAG IEEE_DENORMAL
Note: The following floating-point exceptions are signalling: IEEE_UNDERFLOW_FLAG IEEE_DENORMAL
Note: The following floating-point exceptions are signalling: IEEE_UNDERFLOW_FLAG IEEE_DENORMAL
Note: The following floating-point exceptions are signalling: IEEE_UNDERFLOW_FLAG IEEE_DENORMAL
Note: The following floating-point exceptions are signalling: IEEE_UNDERFLOW_FLAG IEEE_DENORMAL
Note: The following floating-point exceptions are signalling: IEEE_UNDERFLOW_FLAG IEEE_DENORMAL
Note: The following floating-point exceptions are signalling: IEEE_UNDERFLOW_FLAG IEEE_DENORMAL
