
     Program PWSCF v.7.4 starts on 28Oct2025 at 10:39: 0 

     This program is part of the open-source Quantum ESPRESSO suite
     for quantum simulation of materials; please cite
         "P. Giannozzi et al., J. Phys.:Condens. Matter 21 395502 (2009);
         "P. Giannozzi et al., J. Phys.:Condens. Matter 29 465901 (2017);
         "P. Giannozzi et al., J. Chem. Phys. 152 154105 (2020);
          URL http://www.quantum-espresso.org", 
     in publications or presentations arising from this work. More details at
     http://www.quantum-espresso.org/quote

     Parallel version (MPI & OpenMP), running on      16 processor cores
     Number of MPI processes:                16
     Threads/MPI process:                     1

     MPI processes distributed on     1 nodes
     230669 MiB available memory on the printing compute node when the environment starts

     Reading input from TiFe_ecutwfc_convergence/TiFe2_ecut50.in

     Current dimensions of program PWSCF are:
     Max number of different atomic species (ntypx) = 10
     Max number of k-points (npk) =  40000
     Max angular momentum in pseudopotentials (lmaxx) =  4
     file Fe.pbe-spn-kjpaw_psl.0.2.1.UPF: wavefunction(s)  3D renormalized

     IMPORTANT: XC functional enforced from input :
     Exchange-correlation= PBE
                           (   1   4   3   4   0   0   0)
     Any further DFT definition will be discarded
     Please, verify this is what you really want

     Message from routine setup:
     using ibrav=0 with symmetry is DISCOURAGED, use correct ibrav instead

     K-points division:     npool     =       2
     R & G space division:  proc/nbgrp/npool/nimage =       8
     Subspace diagonalization in iterative solution of the eigenvalue problem:
     a serial algorithm will be used


     Parallelization info
     --------------------
     sticks:   dense  smooth     PW     G-vecs:    dense   smooth      PW
     Min          75      61     18                 1431     1027     176
     Max          77      62     19                 1433     1028     181
     Sum         609     489    149                11459     8217    1419

     Using Slab Decomposition



     bravais-lattice index     =            0
     lattice parameter (alat)  =       5.5533  a.u.
     unit-cell volume          =     171.2590 (a.u.)^3
     number of atoms/cell      =            2
     number of atomic types    =            2
     number of electrons       =        28.00
     number of Kohn-Sham states=           18
     kinetic-energy cutoff     =      50.0000  Ry
     charge density cutoff     =     250.0000  Ry
     scf convergence threshold =      1.0E-08
     mixing beta               =       0.7000
     number of iterations used =            8  plain     mixing
     Exchange-correlation= PBE
                           (   1   4   3   4   0   0   0)

     celldm(1)=   5.553300  celldm(2)=   0.000000  celldm(3)=   0.000000
     celldm(4)=   0.000000  celldm(5)=   0.000000  celldm(6)=   0.000000

     crystal axes: (cart. coord. in units of alat)
               a(1) = (   1.000000   0.000000   0.000000 )  
               a(2) = (   0.000000   1.000000   0.000000 )  
               a(3) = (   0.000000   0.000000   1.000000 )  

     reciprocal axes: (cart. coord. in units 2 pi/alat)
               b(1) = (  1.000000  0.000000  0.000000 )  
               b(2) = (  0.000000  1.000000  0.000000 )  
               b(3) = (  0.000000  0.000000  1.000000 )  


     PseudoPot. # 1 for Fe read from file:
     ./Fe.pbe-spn-kjpaw_psl.0.2.1.UPF
     MD5 check sum: e86618425769142926afa95317d90200
     Pseudo is Projector augmented-wave + core cor, Zval = 16.0
     Generated using "atomic" code by A. Dal Corso  v.5.0.99 svn rev. 10869
     Shape of augmentation charge: PSQ
     Using radial grid of 1191 points,  6 beta functions with: 
                l(1) =   0
                l(2) =   0
                l(3) =   1
                l(4) =   1
                l(5) =   2
                l(6) =   2
     Q(r) pseudized with 0 coefficients 


     PseudoPot. # 2 for Ti read from file:
     ./Ti_pbe_v1.4.uspp.F.UPF
     MD5 check sum: 88a00a6731bd790ddea75d31a80cb452
     Pseudo is Ultrasoft + core correction, Zval = 12.0
     Generated by new atomic code, or converted to UPF format
     Using radial grid of  851 points,  6 beta functions with: 
                l(1) =   0
                l(2) =   0
                l(3) =   1
                l(4) =   1
                l(5) =   2
                l(6) =   2
     Q(r) pseudized with  6 coefficients,  rinner =    1.000   1.000   1.000
                                                       1.000   1.000

     atomic species   valence    mass     pseudopotential
     Fe               16.00    55.84500     Fe( 1.00)
     Ti               12.00    47.86700     Ti( 1.00)

     48 Sym. Ops., with inversion, found



   Cartesian axes

     site n.     atom                  positions (alat units)
         1        Fe     tau(   1) = (   0.5000000   0.5000000   0.5000000  )
         2        Ti     tau(   2) = (   0.0000000   0.0000000   0.0000000  )

     number of k points=    35  Marzari-Vanderbilt smearing, width (Ry)=  0.0050
                       cart. coord. in units 2pi/alat
        k(    1) = (   0.0000000   0.0000000   0.0000000), wk =   0.0027435
        k(    2) = (   0.0000000   0.0000000   0.1111111), wk =   0.0164609
        k(    3) = (   0.0000000   0.0000000   0.2222222), wk =   0.0164609
        k(    4) = (   0.0000000   0.0000000   0.3333333), wk =   0.0164609
        k(    5) = (   0.0000000   0.0000000   0.4444444), wk =   0.0164609
        k(    6) = (   0.0000000   0.1111111   0.1111111), wk =   0.0329218
        k(    7) = (   0.0000000   0.1111111   0.2222222), wk =   0.0658436
        k(    8) = (   0.0000000   0.1111111   0.3333333), wk =   0.0658436
        k(    9) = (   0.0000000   0.1111111   0.4444444), wk =   0.0658436
        k(   10) = (   0.0000000   0.2222222   0.2222222), wk =   0.0329218
        k(   11) = (   0.0000000   0.2222222   0.3333333), wk =   0.0658436
        k(   12) = (   0.0000000   0.2222222   0.4444444), wk =   0.0658436
        k(   13) = (   0.0000000   0.3333333   0.3333333), wk =   0.0329218
        k(   14) = (   0.0000000   0.3333333   0.4444444), wk =   0.0658436
        k(   15) = (   0.0000000   0.4444444   0.4444444), wk =   0.0329218
        k(   16) = (   0.1111111   0.1111111   0.1111111), wk =   0.0219479
        k(   17) = (   0.1111111   0.1111111   0.2222222), wk =   0.0658436
        k(   18) = (   0.1111111   0.1111111   0.3333333), wk =   0.0658436
        k(   19) = (   0.1111111   0.1111111   0.4444444), wk =   0.0658436
        k(   20) = (   0.1111111   0.2222222   0.2222222), wk =   0.0658436
        k(   21) = (   0.1111111   0.2222222   0.3333333), wk =   0.1316872
        k(   22) = (   0.1111111   0.2222222   0.4444444), wk =   0.1316872
        k(   23) = (   0.1111111   0.3333333   0.3333333), wk =   0.0658436
        k(   24) = (   0.1111111   0.3333333   0.4444444), wk =   0.1316872
        k(   25) = (   0.1111111   0.4444444   0.4444444), wk =   0.0658436
        k(   26) = (   0.2222222   0.2222222   0.2222222), wk =   0.0219479
        k(   27) = (   0.2222222   0.2222222   0.3333333), wk =   0.0658436
        k(   28) = (   0.2222222   0.2222222   0.4444444), wk =   0.0658436
        k(   29) = (   0.2222222   0.3333333   0.3333333), wk =   0.0658436
        k(   30) = (   0.2222222   0.3333333   0.4444444), wk =   0.1316872
        k(   31) = (   0.2222222   0.4444444   0.4444444), wk =   0.0658436
        k(   32) = (   0.3333333   0.3333333   0.3333333), wk =   0.0219479
        k(   33) = (   0.3333333   0.3333333   0.4444444), wk =   0.0658436
        k(   34) = (   0.3333333   0.4444444   0.4444444), wk =   0.0658436
        k(   35) = (   0.4444444   0.4444444   0.4444444), wk =   0.0219479

     Dense  grid:    11459 G-vectors     FFT dimensions: (  27,  27,  27)

     Smooth grid:     8217 G-vectors     FFT dimensions: (  25,  25,  25)

     Estimated max dynamical RAM per process >       6.31 MB

     Estimated total dynamical RAM >      98.16 MB

     Check: negative core charge=   -0.000266

     Initial potential from superposition of free atoms

     starting charge      26.9995, renormalised to      28.0000

     negative rho (up, down):  2.011E-03 0.000E+00
     Starting wfcs are   23 randomized atomic wfcs
     Checking if some PAW data can be deallocated... 

     total cpu time spent up to now is        0.5 secs

     per-process dynamical memory:   115.0 Mb

     Self-consistent Calculation

     iteration #  1     ecut=    50.00 Ry     beta= 0.70
     Davidson diagonalization with overlap
     ethr =  1.00E-02,  avg # of iterations =  2.1

     total cpu time spent up to now is        0.6 secs

     total energy              =    -434.88087867 Ry
     estimated scf accuracy    <      17.46779220 Ry

     iteration #  2     ecut=    50.00 Ry     beta= 0.70
     Davidson diagonalization with overlap
     ethr =  1.00E-02,  avg # of iterations =  5.9

     negative rho (up, down):  4.611E-04 0.000E+00

     total cpu time spent up to now is        0.8 secs

     total energy              =    -448.63916808 Ry
     estimated scf accuracy    <      65.47477582 Ry

     iteration #  3     ecut=    50.00 Ry     beta= 0.70
     Davidson diagonalization with overlap
     ethr =  1.00E-02,  avg # of iterations =  3.1

     negative rho (up, down):  9.803E-04 0.000E+00

     total cpu time spent up to now is        1.0 secs

     total energy              =    -448.55314937 Ry
     estimated scf accuracy    <      16.82762168 Ry

     iteration #  4     ecut=    50.00 Ry     beta= 0.70
     Davidson diagonalization with overlap
     ethr =  1.00E-02,  avg # of iterations =  2.2

     negative rho (up, down):  1.015E-03 0.000E+00

     total cpu time spent up to now is        1.1 secs

     total energy              =    -449.09724372 Ry
     estimated scf accuracy    <       4.61257335 Ry

     iteration #  5     ecut=    50.00 Ry     beta= 0.70
     Davidson diagonalization with overlap
     ethr =  1.00E-02,  avg # of iterations =  1.0

     negative rho (up, down):  1.039E-03 0.000E+00

     total cpu time spent up to now is        1.2 secs

     total energy              =    -449.11331330 Ry
     estimated scf accuracy    <       4.24959950 Ry

     iteration #  6     ecut=    50.00 Ry     beta= 0.70
     Davidson diagonalization with overlap
     ethr =  1.00E-02,  avg # of iterations =  1.0

     negative rho (up, down):  1.670E-03 0.000E+00

     total cpu time spent up to now is        1.3 secs

     total energy              =    -448.03597310 Ry
     estimated scf accuracy    <       4.34404871 Ry

     iteration #  7     ecut=    50.00 Ry     beta= 0.70
     Davidson diagonalization with overlap
     ethr =  1.00E-02,  avg # of iterations =  2.4

     negative rho (up, down):  1.606E-03 0.000E+00

     total cpu time spent up to now is        1.4 secs

     total energy              =    -448.53171127 Ry
     estimated scf accuracy    <       1.07060634 Ry

     iteration #  8     ecut=    50.00 Ry     beta= 0.70
     Davidson diagonalization with overlap
     ethr =  3.82E-03,  avg # of iterations =  1.1

     negative rho (up, down):  1.412E-03 0.000E+00

     total cpu time spent up to now is        1.5 secs

     total energy              =    -448.59799848 Ry
     estimated scf accuracy    <       0.13584592 Ry

     iteration #  9     ecut=    50.00 Ry     beta= 0.70
     Davidson diagonalization with overlap
     ethr =  4.85E-04,  avg # of iterations =  2.7

     negative rho (up, down):  1.720E-03 0.000E+00

     total cpu time spent up to now is        1.7 secs

     total energy              =    -448.54251334 Ry
     estimated scf accuracy    <       0.17621263 Ry

     iteration # 10     ecut=    50.00 Ry     beta= 0.70
     Davidson diagonalization with overlap
     ethr =  4.85E-04,  avg # of iterations =  4.3

     negative rho (up, down):  1.906E-03 0.000E+00

     total cpu time spent up to now is        1.8 secs

     total energy              =    -448.64773246 Ry
     estimated scf accuracy    <       0.29047360 Ry

     iteration # 11     ecut=    50.00 Ry     beta= 0.70
     Davidson diagonalization with overlap
     ethr =  4.85E-04,  avg # of iterations =  4.3

     negative rho (up, down):  2.193E-03 0.000E+00

     total cpu time spent up to now is        2.0 secs

     total energy              =    -449.05976289 Ry
     estimated scf accuracy    <       1.65708040 Ry

     iteration # 12     ecut=    50.00 Ry     beta= 0.70
     Davidson diagonalization with overlap
     ethr =  4.85E-04,  avg # of iterations =  5.0

     negative rho (up, down):  1.512E-03 0.000E+00

     total cpu time spent up to now is        2.1 secs

     total energy              =    -447.25178599 Ry
     estimated scf accuracy    <      20.63547362 Ry

     iteration # 13     ecut=    50.00 Ry     beta= 0.70
     Davidson diagonalization with overlap
     ethr =  4.85E-04,  avg # of iterations =  5.6

     negative rho (up, down):  1.592E-03 0.000E+00

     total cpu time spent up to now is        2.3 secs

     total energy              =    -448.56735719 Ry
     estimated scf accuracy    <       0.46372335 Ry

     iteration # 14     ecut=    50.00 Ry     beta= 0.70
     Davidson diagonalization with overlap
     ethr =  4.85E-04,  avg # of iterations =  1.2

     negative rho (up, down):  1.341E-03 0.000E+00

     total cpu time spent up to now is        2.4 secs

     total energy              =    -448.60760975 Ry
     estimated scf accuracy    <       0.07777845 Ry

     iteration # 15     ecut=    50.00 Ry     beta= 0.70
     Davidson diagonalization with overlap
     ethr =  2.78E-04,  avg # of iterations =  2.2

     negative rho (up, down):  1.333E-03 0.000E+00

     total cpu time spent up to now is        2.6 secs

     total energy              =    -448.59348528 Ry
     estimated scf accuracy    <       0.46042722 Ry

     iteration # 16     ecut=    50.00 Ry     beta= 0.70
     Davidson diagonalization with overlap
     ethr =  2.78E-04,  avg # of iterations =  1.1

     negative rho (up, down):  1.361E-03 0.000E+00

     total cpu time spent up to now is        2.7 secs

     total energy              =    -448.59172209 Ry
     estimated scf accuracy    <       0.15260472 Ry

     iteration # 17     ecut=    50.00 Ry     beta= 0.70
     Davidson diagonalization with overlap
     ethr =  2.78E-04,  avg # of iterations =  1.0

     negative rho (up, down):  1.283E-03 0.000E+00

     total cpu time spent up to now is        2.8 secs

     total energy              =    -448.60911306 Ry
     estimated scf accuracy    <       0.09101123 Ry

     iteration # 18     ecut=    50.00 Ry     beta= 0.70
     Davidson diagonalization with overlap
     ethr =  2.78E-04,  avg # of iterations =  1.0

     negative rho (up, down):  1.157E-03 0.000E+00

     total cpu time spent up to now is        2.9 secs

     total energy              =    -448.64940222 Ry
     estimated scf accuracy    <       0.22550376 Ry

     iteration # 19     ecut=    50.00 Ry     beta= 0.70
     Davidson diagonalization with overlap
     ethr =  2.78E-04,  avg # of iterations =  2.4

     negative rho (up, down):  1.565E-03 0.000E+00

     total cpu time spent up to now is        3.0 secs

     total energy              =    -448.54313674 Ry
     estimated scf accuracy    <       0.76573860 Ry

     iteration # 20     ecut=    50.00 Ry     beta= 0.70
     Davidson diagonalization with overlap
     ethr =  2.78E-04,  avg # of iterations =  3.4

     negative rho (up, down):  1.746E-03 0.000E+00

     total cpu time spent up to now is        3.1 secs

     total energy              =    -448.56660915 Ry
     estimated scf accuracy    <       0.03777453 Ry

     iteration # 21     ecut=    50.00 Ry     beta= 0.70
     Davidson diagonalization with overlap
     ethr =  1.35E-04,  avg # of iterations =  3.6

     negative rho (up, down):  1.701E-03 0.000E+00

     total cpu time spent up to now is        3.3 secs

     total energy              =    -448.57462660 Ry
     estimated scf accuracy    <       0.01411464 Ry

     iteration # 22     ecut=    50.00 Ry     beta= 0.70
     Davidson diagonalization with overlap
     ethr =  5.04E-05,  avg # of iterations =  1.3

     negative rho (up, down):  1.692E-03 0.000E+00

     total cpu time spent up to now is        3.4 secs

     total energy              =    -448.57498749 Ry
     estimated scf accuracy    <       0.00237274 Ry

     iteration # 23     ecut=    50.00 Ry     beta= 0.70
     Davidson diagonalization with overlap
     ethr =  8.47E-06,  avg # of iterations =  2.8

     negative rho (up, down):  1.676E-03 0.000E+00

     total cpu time spent up to now is        3.5 secs

     total energy              =    -448.57492180 Ry
     estimated scf accuracy    <       0.00210642 Ry

     iteration # 24     ecut=    50.00 Ry     beta= 0.70
     Davidson diagonalization with overlap
     ethr =  7.52E-06,  avg # of iterations =  1.7

     negative rho (up, down):  1.672E-03 0.000E+00

     total cpu time spent up to now is        3.6 secs

     total energy              =    -448.57503293 Ry
     estimated scf accuracy    <       0.00009909 Ry

     iteration # 25     ecut=    50.00 Ry     beta= 0.70
     Davidson diagonalization with overlap
     ethr =  3.54E-07,  avg # of iterations =  4.4

     negative rho (up, down):  1.670E-03 0.000E+00

     total cpu time spent up to now is        3.8 secs

     total energy              =    -448.57510900 Ry
     estimated scf accuracy    <       0.00041721 Ry

     iteration # 26     ecut=    50.00 Ry     beta= 0.70
     Davidson diagonalization with overlap
     ethr =  3.54E-07,  avg # of iterations =  1.0

     negative rho (up, down):  1.676E-03 0.000E+00

     total cpu time spent up to now is        3.9 secs

     total energy              =    -448.57503035 Ry
     estimated scf accuracy    <       0.00063274 Ry

     iteration # 27     ecut=    50.00 Ry     beta= 0.70
     Davidson diagonalization with overlap
     ethr =  3.54E-07,  avg # of iterations =  3.2

     negative rho (up, down):  1.676E-03 0.000E+00

     total cpu time spent up to now is        4.0 secs

     total energy              =    -448.57506390 Ry
     estimated scf accuracy    <       0.00000812 Ry

     iteration # 28     ecut=    50.00 Ry     beta= 0.70
     Davidson diagonalization with overlap
     ethr =  2.90E-08,  avg # of iterations =  3.0

     negative rho (up, down):  1.673E-03 0.000E+00

     total cpu time spent up to now is        4.1 secs

     total energy              =    -448.57506590 Ry
     estimated scf accuracy    <       0.00000370 Ry

     iteration # 29     ecut=    50.00 Ry     beta= 0.70
     Davidson diagonalization with overlap
     ethr =  1.32E-08,  avg # of iterations =  3.8

     negative rho (up, down):  1.673E-03 0.000E+00

     total cpu time spent up to now is        4.3 secs

     total energy              =    -448.57507106 Ry
     estimated scf accuracy    <       0.00002937 Ry

     iteration # 30     ecut=    50.00 Ry     beta= 0.70
     Davidson diagonalization with overlap
     ethr =  1.32E-08,  avg # of iterations =  2.2

     negative rho (up, down):  1.674E-03 0.000E+00

     total cpu time spent up to now is        4.4 secs

     total energy              =    -448.57506785 Ry
     estimated scf accuracy    <       0.00005911 Ry

     iteration # 31     ecut=    50.00 Ry     beta= 0.70
     Davidson diagonalization with overlap
     ethr =  1.32E-08,  avg # of iterations =  1.3

     negative rho (up, down):  1.673E-03 0.000E+00

     total cpu time spent up to now is        4.5 secs

     total energy              =    -448.57506937 Ry
     estimated scf accuracy    <       0.00003244 Ry

     iteration # 32     ecut=    50.00 Ry     beta= 0.70
     Davidson diagonalization with overlap
     ethr =  1.32E-08,  avg # of iterations =  1.0

     negative rho (up, down):  1.676E-03 0.000E+00

     total cpu time spent up to now is        4.6 secs

     total energy              =    -448.57506258 Ry
     estimated scf accuracy    <       0.00004100 Ry

     iteration # 33     ecut=    50.00 Ry     beta= 0.70
     Davidson diagonalization with overlap
     ethr =  1.32E-08,  avg # of iterations =  4.0

     negative rho (up, down):  1.676E-03 0.000E+00

     total cpu time spent up to now is        4.8 secs

     total energy              =    -448.57506459 Ry
     estimated scf accuracy    <       0.00000124 Ry

     iteration # 34     ecut=    50.00 Ry     beta= 0.70
     Davidson diagonalization with overlap
     ethr =  4.44E-09,  avg # of iterations =  2.2

     negative rho (up, down):  1.676E-03 0.000E+00

     total cpu time spent up to now is        4.9 secs

     total energy              =    -448.57506479 Ry
     estimated scf accuracy    <       0.00000007 Ry

     iteration # 35     ecut=    50.00 Ry     beta= 0.70
     Davidson diagonalization with overlap
     ethr =  2.67E-10,  avg # of iterations =  3.1

     negative rho (up, down):  1.676E-03 0.000E+00

     total cpu time spent up to now is        5.0 secs

     total energy              =    -448.57506478 Ry
     estimated scf accuracy    <       0.00000020 Ry

     iteration # 36     ecut=    50.00 Ry     beta= 0.70
     Davidson diagonalization with overlap
     ethr =  2.67E-10,  avg # of iterations =  4.1

     negative rho (up, down):  1.676E-03 0.000E+00

     total cpu time spent up to now is        5.2 secs

     total energy              =    -448.57506483 Ry
     estimated scf accuracy    <       0.00000009 Ry

     iteration # 37     ecut=    50.00 Ry     beta= 0.70
     Davidson diagonalization with overlap
     ethr =  2.67E-10,  avg # of iterations =  1.0

     negative rho (up, down):  1.676E-03 0.000E+00

     total cpu time spent up to now is        5.3 secs

     total energy              =    -448.57506481 Ry
     estimated scf accuracy    <       0.00000012 Ry

     iteration # 38     ecut=    50.00 Ry     beta= 0.70
     Davidson diagonalization with overlap
     ethr =  2.67E-10,  avg # of iterations =  1.1

     negative rho (up, down):  1.676E-03 0.000E+00

     total cpu time spent up to now is        5.4 secs

     total energy              =    -448.57506481 Ry
     estimated scf accuracy    <       0.00000001 Ry

     iteration # 39     ecut=    50.00 Ry     beta= 0.70
     Davidson diagonalization with overlap
     ethr =  4.38E-11,  avg # of iterations =  3.4

     negative rho (up, down):  1.676E-03 0.000E+00

     total cpu time spent up to now is        5.5 secs

     End of self-consistent calculation

          k = 0.0000 0.0000 0.0000 (  1021 PWs)   bands (ev):

   -69.1920 -39.1294 -35.2534 -35.2534 -35.2534 -15.2242 -15.2242 -15.2242
    10.1627  13.8812  13.8812  16.6557  16.6557  16.6557  19.0227  19.0227
    20.9516  20.9516

          k = 0.0000 0.0000 0.1111 (  1013 PWs)   bands (ev):

   -69.1914 -39.1263 -35.2563 -35.2525 -35.2525 -15.2673 -15.2216 -15.2216
    10.4210  14.0053  14.0141  16.6372  16.6372  16.7116  18.8650  19.0807
    20.5915  20.5915

          k = 0.0000 0.0000 0.2222 (  1013 PWs)   bands (ev):

   -69.1904 -39.1183 -35.2659 -35.2507 -35.2507 -15.3755 -15.2150 -15.2150
    11.1566  14.3311  14.3641  16.6004  16.6004  16.8623  18.4184  19.1862
    19.8305  19.8305

          k = 0.0000 0.0000 0.3333 (  1028 PWs)   bands (ev):

   -69.1895 -39.1093 -35.2770 -35.2492 -35.2492 -15.4966 -15.2076 -15.2076
    12.2494  14.5820  14.9058  16.5820  16.5820  17.0537  17.7718  19.0943
    19.1053  19.1053

          k = 0.0000 0.0000 0.4444 (  1024 PWs)   bands (ev):

   -69.1887 -39.1035 -35.2837 -35.2479 -35.2479 -15.5746 -15.2028 -15.2028
    13.4554  14.3807  15.4635  16.5898  16.5898  17.1431  17.1941  18.6715
    18.6715  18.7153

          k = 0.0000 0.1111 0.1111 (  1009 PWs)   bands (ev):

   -69.1909 -39.1229 -35.2580 -35.2540 -35.2517 -15.2686 -15.2597 -15.2188
    10.6712  14.1179  14.1504  16.5159  16.6021  16.8437  18.8538  19.0390
    20.2263  20.2350

          k = 0.0000 0.1111 0.2222 (  1024 PWs)   bands (ev):

   -69.1902 -39.1142 -35.2671 -35.2550 -35.2503 -15.3712 -15.2557 -15.2119
    11.3803  14.4075  14.5064  16.4077  16.5239  16.9682  18.5371  19.1268
    19.5326  19.6363

          k = 0.0000 0.1111 0.3333 (  1025 PWs)   bands (ev):

   -69.1890 -39.1044 -35.2779 -35.2542 -35.2487 -15.4904 -15.2468 -15.2040
    12.4228  14.6504  14.9882  16.3761  16.4491  16.9708  18.0322  18.7497
    19.2141  19.3129

          k = 0.0000 0.1111 0.4444 (  1029 PWs)   bands (ev):

   -69.1883 -39.0980 -35.2849 -35.2539 -35.2475 -15.5672 -15.2409 -15.1988
    13.5454  14.4384  15.4727  16.3736  16.4219  16.8547  17.6195  18.3543
    19.0749  19.1451

          k = 0.0000 0.2222 0.2222 (  1023 PWs)   bands (ev):

   -69.1891 -39.1038 -35.2710 -35.2629 -35.2488 -15.3693 -15.3486 -15.2038
    11.9993  14.5342  14.9262  16.1637  16.3893  16.9176  18.6954  18.9437
    19.0973  19.4592

          k = 0.0000 0.2222 0.3333 (  1022 PWs)   bands (ev):

   -69.1880 -39.0919 -35.2810 -35.2664 -35.2472 -15.4748 -15.3448 -15.1946
    12.8494  14.5750  15.4379  16.0277  16.3619  16.6267  18.4670  18.5829
    19.2934  19.5628

          k = 0.0000 0.2222 0.4444 (  1026 PWs)   bands (ev):

   -69.1873 -39.0841 -35.2885 -35.2678 -35.2463 -15.5485 -15.3366 -15.1886
    13.6474  14.3613  15.7938  16.0479  16.3055  16.5392  18.1828  18.3931
    19.4692  19.7820

          k = 0.0000 0.3333 0.3333 (  1029 PWs)   bands (ev):

   -69.1869 -39.0776 -35.2861 -35.2792 -35.2461 -15.4638 -15.4480 -15.1840
    13.2901  14.3529  15.7712  16.1080  16.1862  16.6144  18.5221  18.9622
    19.1546  20.0185

          k = 0.0000 0.3333 0.4444 (  1031 PWs)   bands (ev):

   -69.1862 -39.0682 -35.2926 -35.2843 -35.2452 -15.5272 -15.4438 -15.1770
    13.5558  14.1371  15.6985  15.8483  16.5667  17.2798  18.2831  19.0282
    19.4205  20.4080

          k = 0.0000 0.4444 0.4444 (  1032 PWs)   bands (ev):

   -69.1855 -39.0578 -35.2958 -35.2947 -35.2444 -15.5144 -15.5120 -15.1694
    13.4235  13.9887  15.5213  15.5720  17.4423  17.9241  18.6868  18.9363
    19.4041  20.7970

          k = 0.1111 0.1111 0.1111 (  1021 PWs)   bands (ev):

   -69.1907 -39.1192 -35.2574 -35.2574 -35.2530 -15.2685 -15.2570 -15.2570
    10.9148  14.2559  14.2559  16.4776  16.4776  16.9252  18.9368  18.9368
    19.7016  20.5599

          k = 0.1111 0.1111 0.2222 (  1018 PWs)   bands (ev):

   -69.1897 -39.1100 -35.2671 -35.2557 -35.2532 -15.3669 -15.2543 -15.2503
    11.6040  14.5560  14.5790  16.3302  16.3798  16.9264  18.6485  19.0751
    19.3085  19.8003

          k = 0.1111 0.1111 0.3333 (  1025 PWs)   bands (ev):

   -69.1886 -39.0995 -35.2788 -35.2541 -35.2533 -15.4845 -15.2435 -15.2427
    12.6046  14.7984  14.9931  16.2488  16.3064  16.7774  18.2461  18.8469
    19.1047  19.4862

          k = 0.1111 0.1111 0.4444 (  1025 PWs)   bands (ev):

   -69.1879 -39.0927 -35.2859 -35.2533 -35.2530 -15.5604 -15.2377 -15.2363
    13.6619  14.5430  15.4225  16.0865  16.4639  16.6534  17.9138  18.4651
    18.7114  19.7924

          k = 0.1111 0.2222 0.2222 (  1024 PWs)   bands (ev):

   -69.1888 -39.0993 -35.2703 -35.2638 -35.2536 -15.3638 -15.3459 -15.2436
    12.2194  14.7028  14.9767  16.1061  16.2301  16.6603  18.7961  19.0751
    19.1913  19.5787

          k = 0.1111 0.2222 0.3333 (  1025 PWs)   bands (ev):

   -69.1876 -39.0871 -35.2811 -35.2665 -35.2527 -15.4697 -15.3412 -15.2337
    13.0559  14.7637  15.4018  15.9571  16.1879  16.3766  18.6780  18.7224
    19.1824  19.8374

          k = 0.1111 0.2222 0.4444 (  1025 PWs)   bands (ev):

   -69.1869 -39.0791 -35.2889 -35.2674 -35.2519 -15.5430 -15.3330 -15.2272
    13.8240  14.5373  15.6163  15.8900  16.2200  16.5109  18.2942  18.5542
    18.9551  20.4699

          k = 0.1111 0.3333 0.3333 (  1020 PWs)   bands (ev):

   -69.1864 -39.0729 -35.2852 -35.2793 -35.2511 -15.4588 -15.4452 -15.2230
    13.5127  14.5357  15.7221  15.9990  16.0711  16.3822  18.5585  19.0482
    19.1294  20.3822

          k = 0.1111 0.3333 0.4444 (  1023 PWs)   bands (ev):

   -69.1857 -39.0636 -35.2923 -35.2837 -35.2503 -15.5232 -15.4407 -15.2160
    13.7603  14.3238  15.6427  15.7435  16.4710  17.0514  18.2744  18.9490
    19.2129  20.7314

          k = 0.1111 0.4444 0.4444 (  1021 PWs)   bands (ev):

   -69.1849 -39.0535 -35.2949 -35.2939 -35.2494 -15.5113 -15.5092 -15.2086
    13.6291  14.1775  15.4884  15.5296  17.3401  17.6722  18.4120  18.5099
    19.5222  21.0045

          k = 0.2222 0.2222 0.2222 (  1027 PWs)   bands (ev):

   -69.1878 -39.0879 -35.2689 -35.2689 -35.2622 -15.3546 -15.3388 -15.3388
    12.8183  15.1095  15.1095  15.9634  15.9634  16.1337  18.9955  18.9955
    19.7440  19.8104

          k = 0.2222 0.2222 0.3333 (  1019 PWs)   bands (ev):

   -69.1865 -39.0749 -35.2813 -35.2669 -35.2649 -15.4568 -15.3327 -15.3308
    13.5906  15.2238  15.2772  15.7999  15.8800  15.9832  18.8315  18.8629
    19.2805  20.2138

          k = 0.2222 0.2222 0.4444 (  1020 PWs)   bands (ev):

   -69.1858 -39.0664 -35.2902 -35.2663 -35.2655 -15.5290 -15.3256 -15.3224
    14.2051  14.8346  15.4145  15.6726  16.0208  16.4041  18.3403  18.6509
    19.0678  20.5653

          k = 0.2222 0.3333 0.3333 (  1024 PWs)   bands (ev):

   -69.1855 -39.0610 -35.2836 -35.2798 -35.2651 -15.4461 -15.4381 -15.3209
    14.1256  14.9704  15.6088  15.6638  15.8849  15.9527  18.6039  18.7557
    19.5925  20.3204

          k = 0.2222 0.3333 0.4444 (  1019 PWs)   bands (ev):

   -69.1846 -39.0519 -35.2917 -35.2820 -35.2642 -15.5131 -15.4326 -15.3137
    14.3126  14.7597  15.5246  15.5660  16.1485  16.5846  18.2324  18.5364
    19.6387  20.7036

          k = 0.2222 0.4444 0.4444 (  1017 PWs)   bands (ev):

   -69.1839 -39.0424 -35.2930 -35.2925 -35.2629 -15.5033 -15.5021 -15.3070
    14.2008  14.6470  15.4199  15.4504  16.9090  16.9288  18.0689  18.2681
    19.9192  21.0606

          k = 0.3333 0.3333 0.3333 (  1009 PWs)   bands (ev):

   -69.1841 -39.0475 -35.2811 -35.2811 -35.2794 -15.4324 -15.4299 -15.4299
    14.8653  15.1304  15.5074  15.5074  15.7682  15.7682  18.4693  18.4693
    20.2420  20.2420

          k = 0.3333 0.3333 0.4444 (  1019 PWs)   bands (ev):

   -69.1835 -39.0386 -35.2911 -35.2804 -35.2799 -15.5016 -15.4246 -15.4221
    14.8782  15.0685  15.4885  15.5854  15.8031  16.2500  18.1059  18.3236
    20.2355  20.7947

          k = 0.3333 0.4444 0.4444 (  1026 PWs)   bands (ev):

   -69.1829 -39.0299 -35.2908 -35.2907 -35.2792 -15.4942 -15.4940 -15.4173
    14.9504  15.1364  15.3890  15.4826  16.2170  16.2932  17.9410  18.1332
    20.5502  21.1043

          k = 0.4444 0.4444 0.4444 (  1028 PWs)   bands (ev):

   -69.1822 -39.0216 -35.2894 -35.2894 -35.2893 -15.4887 -15.4887 -15.4881
    15.2824  15.4662  15.4662  15.8185  15.8185  15.8240  17.9128  17.9128
    21.1308  21.1308

     the Fermi energy is    17.6673 ev

!    total energy              =    -448.57506481 Ry
     estimated scf accuracy    <          7.2E-09 Ry
     smearing contrib. (-TS)   =      -0.00005667 Ry
     internal energy E=F+TS    =    -448.57500814 Ry

     The total energy is F=E-TS. E is the sum of the following terms:
     one-electron contribution =    -151.34793353 Ry
     hartree contribution      =      91.63847686 Ry
     xc contribution           =     -52.89329698 Ry
     ewald contribution        =    -259.82070279 Ry
     one-center paw contrib.   =     -76.15155170 Ry

     convergence has been achieved in  39 iterations

     negative rho (up, down):  1.676E-03 0.000E+00

     Forces acting on atoms (cartesian axes, Ry/au):

     atom    1 type  1   force =     0.00000000    0.00000000    0.00000000
     atom    2 type  2   force =     0.00000000    0.00000000    0.00000000

     Total force =     0.000000     Total SCF correction =     0.000000


     Computing stress (Cartesian axis) and pressure


     negative rho (up, down):  1.676E-03 0.000E+00
          total   stress  (Ry/bohr**3)                   (kbar)     P=       -9.90
  -0.00006732   0.00000000   0.00000000           -9.90        0.00        0.00
   0.00000000  -0.00006732   0.00000000            0.00       -9.90        0.00
   0.00000000   0.00000000  -0.00006732            0.00        0.00       -9.90


     Writing all to output data dir ./TiFe.save/ :
     XML data file, charge density, pseudopotentials, collected wavefunctions

     init_run     :      0.26s CPU      0.27s WALL (       1 calls)
     electrons    :      4.74s CPU      5.08s WALL (       1 calls)
     forces       :      0.01s CPU      0.01s WALL (       1 calls)
     stress       :      0.05s CPU      0.05s WALL (       1 calls)

     Called by init_run:
     wfcinit      :      0.04s CPU      0.04s WALL (       1 calls)
     potinit      :      0.09s CPU      0.09s WALL (       1 calls)
     hinit0       :      0.12s CPU      0.12s WALL (       1 calls)

     Called by electrons:
     c_bands      :      2.64s CPU      2.77s WALL (      39 calls)
     sum_band     :      0.49s CPU      0.51s WALL (      39 calls)
     v_of_rho     :      0.04s CPU      0.05s WALL (      40 calls)
     newd         :      0.14s CPU      0.14s WALL (      40 calls)
     PAW_pot      :      1.43s CPU      1.57s WALL (      40 calls)
     mix_rho      :      0.02s CPU      0.02s WALL (      39 calls)

     Called by c_bands:
     init_us_2    :      0.05s CPU      0.05s WALL (    1458 calls)
     cegterg      :      2.43s CPU      2.55s WALL (     702 calls)

     Called by *egterg:
     cdiaghg      :      0.69s CPU      0.72s WALL (    2530 calls)
     h_psi        :      1.43s CPU      1.51s WALL (    2548 calls)
     s_psi        :      0.04s CPU      0.04s WALL (    2548 calls)
     g_psi        :      0.01s CPU      0.01s WALL (    1828 calls)

     Called by h_psi:
     h_psi:calbec :      0.09s CPU      0.09s WALL (    2548 calls)
     vloc_psi     :      1.29s CPU      1.36s WALL (    2548 calls)
     add_vuspsi   :      0.04s CPU      0.04s WALL (    2548 calls)

     General routines
     calbec       :      0.12s CPU      0.13s WALL (    3556 calls)
     fft          :      0.10s CPU      0.10s WALL (     543 calls)
     ffts         :      0.05s CPU      0.05s WALL (      79 calls)
     fftw         :      1.34s CPU      1.41s WALL (   73998 calls)
     interpolate  :      0.05s CPU      0.05s WALL (      40 calls)

     Parallel routines

     PWSCF        :      5.28s CPU      6.21s WALL


   This run was terminated on:  10:39: 6  28Oct2025            

=------------------------------------------------------------------------------=
   JOB DONE.
=------------------------------------------------------------------------------=
Note: The following floating-point exceptions are signalling: IEEE_UNDERFLOW_FLAG IEEE_DENORMAL
Note: The following floating-point exceptions are signalling: IEEE_UNDERFLOW_FLAG IEEE_DENORMAL
Note: The following floating-point exceptions are signalling: IEEE_UNDERFLOW_FLAG IEEE_DENORMAL
Note: The following floating-point exceptions are signalling: IEEE_UNDERFLOW_FLAG IEEE_DENORMAL
Note: The following floating-point exceptions are signalling: IEEE_UNDERFLOW_FLAG IEEE_DENORMAL
Note: The following floating-point exceptions are signalling: IEEE_UNDERFLOW_FLAG IEEE_DENORMAL
Note: The following floating-point exceptions are signalling: IEEE_UNDERFLOW_FLAG IEEE_DENORMAL
Note: The following floating-point exceptions are signalling: IEEE_UNDERFLOW_FLAG IEEE_DENORMAL
Note: The following floating-point exceptions are signalling: IEEE_UNDERFLOW_FLAG IEEE_DENORMAL
Note: The following floating-point exceptions are signalling: IEEE_UNDERFLOW_FLAG IEEE_DENORMAL
Note: The following floating-point exceptions are signalling: IEEE_UNDERFLOW_FLAG IEEE_DENORMAL
Note: The following floating-point exceptions are signalling: IEEE_UNDERFLOW_FLAG IEEE_DENORMAL
Note: The following floating-point exceptions are signalling: IEEE_UNDERFLOW_FLAG IEEE_DENORMAL
Note: The following floating-point exceptions are signalling: IEEE_UNDERFLOW_FLAG IEEE_DENORMAL
Note: The following floating-point exceptions are signalling: IEEE_UNDERFLOW_FLAG IEEE_DENORMAL
Note: The following floating-point exceptions are signalling: IEEE_UNDERFLOW_FLAG IEEE_DENORMAL
