
     Program PWSCF v.7.4 starts on 28Oct2025 at 10:38:51 

     This program is part of the open-source Quantum ESPRESSO suite
     for quantum simulation of materials; please cite
         "P. Giannozzi et al., J. Phys.:Condens. Matter 21 395502 (2009);
         "P. Giannozzi et al., J. Phys.:Condens. Matter 29 465901 (2017);
         "P. Giannozzi et al., J. Chem. Phys. 152 154105 (2020);
          URL http://www.quantum-espresso.org", 
     in publications or presentations arising from this work. More details at
     http://www.quantum-espresso.org/quote

     Parallel version (MPI & OpenMP), running on      16 processor cores
     Number of MPI processes:                16
     Threads/MPI process:                     1

     MPI processes distributed on     1 nodes
     230612 MiB available memory on the printing compute node when the environment starts

     Reading input from TiFe_ecutwfc_convergence/TiFe2_ecut20.in

     Current dimensions of program PWSCF are:
     Max number of different atomic species (ntypx) = 10
     Max number of k-points (npk) =  40000
     Max angular momentum in pseudopotentials (lmaxx) =  4
     file Fe.pbe-spn-kjpaw_psl.0.2.1.UPF: wavefunction(s)  3D renormalized

     IMPORTANT: XC functional enforced from input :
     Exchange-correlation= PBE
                           (   1   4   3   4   0   0   0)
     Any further DFT definition will be discarded
     Please, verify this is what you really want

     Message from routine setup:
     using ibrav=0 with symmetry is DISCOURAGED, use correct ibrav instead

     K-points division:     npool     =       2
     R & G space division:  proc/nbgrp/npool/nimage =       8
     Subspace diagonalization in iterative solution of the eigenvalue problem:
     a serial algorithm will be used


     Parallelization info
     --------------------
     sticks:   dense  smooth     PW     G-vecs:    dense   smooth      PW
     Min          30      24      8                  366      262      56
     Max          31      25      9                  371      265      59
     Sum         241     193     69                 2945     2103     461

     Using Slab Decomposition



     bravais-lattice index     =            0
     lattice parameter (alat)  =       5.5533  a.u.
     unit-cell volume          =     171.2590 (a.u.)^3
     number of atoms/cell      =            2
     number of atomic types    =            2
     number of electrons       =        28.00
     number of Kohn-Sham states=           18
     kinetic-energy cutoff     =      20.0000  Ry
     charge density cutoff     =     100.0000  Ry
     scf convergence threshold =      1.0E-08
     mixing beta               =       0.7000
     number of iterations used =            8  plain     mixing
     Exchange-correlation= PBE
                           (   1   4   3   4   0   0   0)

     celldm(1)=   5.553300  celldm(2)=   0.000000  celldm(3)=   0.000000
     celldm(4)=   0.000000  celldm(5)=   0.000000  celldm(6)=   0.000000

     crystal axes: (cart. coord. in units of alat)
               a(1) = (   1.000000   0.000000   0.000000 )  
               a(2) = (   0.000000   1.000000   0.000000 )  
               a(3) = (   0.000000   0.000000   1.000000 )  

     reciprocal axes: (cart. coord. in units 2 pi/alat)
               b(1) = (  1.000000  0.000000  0.000000 )  
               b(2) = (  0.000000  1.000000  0.000000 )  
               b(3) = (  0.000000  0.000000  1.000000 )  


     PseudoPot. # 1 for Fe read from file:
     ./Fe.pbe-spn-kjpaw_psl.0.2.1.UPF
     MD5 check sum: e86618425769142926afa95317d90200
     Pseudo is Projector augmented-wave + core cor, Zval = 16.0
     Generated using "atomic" code by A. Dal Corso  v.5.0.99 svn rev. 10869
     Shape of augmentation charge: PSQ
     Using radial grid of 1191 points,  6 beta functions with: 
                l(1) =   0
                l(2) =   0
                l(3) =   1
                l(4) =   1
                l(5) =   2
                l(6) =   2
     Q(r) pseudized with 0 coefficients 


     PseudoPot. # 2 for Ti read from file:
     ./Ti_pbe_v1.4.uspp.F.UPF
     MD5 check sum: 88a00a6731bd790ddea75d31a80cb452
     Pseudo is Ultrasoft + core correction, Zval = 12.0
     Generated by new atomic code, or converted to UPF format
     Using radial grid of  851 points,  6 beta functions with: 
                l(1) =   0
                l(2) =   0
                l(3) =   1
                l(4) =   1
                l(5) =   2
                l(6) =   2
     Q(r) pseudized with  6 coefficients,  rinner =    1.000   1.000   1.000
                                                       1.000   1.000

     atomic species   valence    mass     pseudopotential
     Fe               16.00    55.84500     Fe( 1.00)
     Ti               12.00    47.86700     Ti( 1.00)

     48 Sym. Ops., with inversion, found



   Cartesian axes

     site n.     atom                  positions (alat units)
         1        Fe     tau(   1) = (   0.5000000   0.5000000   0.5000000  )
         2        Ti     tau(   2) = (   0.0000000   0.0000000   0.0000000  )

     number of k points=    35  Marzari-Vanderbilt smearing, width (Ry)=  0.0050
                       cart. coord. in units 2pi/alat
        k(    1) = (   0.0000000   0.0000000   0.0000000), wk =   0.0027435
        k(    2) = (   0.0000000   0.0000000   0.1111111), wk =   0.0164609
        k(    3) = (   0.0000000   0.0000000   0.2222222), wk =   0.0164609
        k(    4) = (   0.0000000   0.0000000   0.3333333), wk =   0.0164609
        k(    5) = (   0.0000000   0.0000000   0.4444444), wk =   0.0164609
        k(    6) = (   0.0000000   0.1111111   0.1111111), wk =   0.0329218
        k(    7) = (   0.0000000   0.1111111   0.2222222), wk =   0.0658436
        k(    8) = (   0.0000000   0.1111111   0.3333333), wk =   0.0658436
        k(    9) = (   0.0000000   0.1111111   0.4444444), wk =   0.0658436
        k(   10) = (   0.0000000   0.2222222   0.2222222), wk =   0.0329218
        k(   11) = (   0.0000000   0.2222222   0.3333333), wk =   0.0658436
        k(   12) = (   0.0000000   0.2222222   0.4444444), wk =   0.0658436
        k(   13) = (   0.0000000   0.3333333   0.3333333), wk =   0.0329218
        k(   14) = (   0.0000000   0.3333333   0.4444444), wk =   0.0658436
        k(   15) = (   0.0000000   0.4444444   0.4444444), wk =   0.0329218
        k(   16) = (   0.1111111   0.1111111   0.1111111), wk =   0.0219479
        k(   17) = (   0.1111111   0.1111111   0.2222222), wk =   0.0658436
        k(   18) = (   0.1111111   0.1111111   0.3333333), wk =   0.0658436
        k(   19) = (   0.1111111   0.1111111   0.4444444), wk =   0.0658436
        k(   20) = (   0.1111111   0.2222222   0.2222222), wk =   0.0658436
        k(   21) = (   0.1111111   0.2222222   0.3333333), wk =   0.1316872
        k(   22) = (   0.1111111   0.2222222   0.4444444), wk =   0.1316872
        k(   23) = (   0.1111111   0.3333333   0.3333333), wk =   0.0658436
        k(   24) = (   0.1111111   0.3333333   0.4444444), wk =   0.1316872
        k(   25) = (   0.1111111   0.4444444   0.4444444), wk =   0.0658436
        k(   26) = (   0.2222222   0.2222222   0.2222222), wk =   0.0219479
        k(   27) = (   0.2222222   0.2222222   0.3333333), wk =   0.0658436
        k(   28) = (   0.2222222   0.2222222   0.4444444), wk =   0.0658436
        k(   29) = (   0.2222222   0.3333333   0.3333333), wk =   0.0658436
        k(   30) = (   0.2222222   0.3333333   0.4444444), wk =   0.1316872
        k(   31) = (   0.2222222   0.4444444   0.4444444), wk =   0.0658436
        k(   32) = (   0.3333333   0.3333333   0.3333333), wk =   0.0219479
        k(   33) = (   0.3333333   0.3333333   0.4444444), wk =   0.0658436
        k(   34) = (   0.3333333   0.4444444   0.4444444), wk =   0.0658436
        k(   35) = (   0.4444444   0.4444444   0.4444444), wk =   0.0219479

     Dense  grid:     2945 G-vectors     FFT dimensions: (  18,  18,  18)

     Smooth grid:     2103 G-vectors     FFT dimensions: (  15,  15,  15)

     Estimated max dynamical RAM per process >       2.59 MB

     Estimated total dynamical RAM >      40.71 MB

     Check: negative core charge=   -0.010860

     Initial potential from superposition of free atoms

     starting charge      26.9995, renormalised to      28.0000

     negative rho (up, down):  8.605E-03 0.000E+00
     Starting wfcs are   23 randomized atomic wfcs
     Checking if some PAW data can be deallocated... 

     total cpu time spent up to now is        0.8 secs

     per-process dynamical memory:   112.2 Mb

     Self-consistent Calculation

     iteration #  1     ecut=    20.00 Ry     beta= 0.70
     Davidson diagonalization with overlap
     ethr =  1.00E-02,  avg # of iterations =  2.4
     Minimization algorithm failed to find Fermi energy: reverting to bisection
     Possible cause: smearing is larger than the electronic band-gap.

     negative rho (up, down):  1.869E-03 0.000E+00

     total cpu time spent up to now is        0.9 secs

     total energy              =    -432.65870022 Ry
     estimated scf accuracy    <      19.61772384 Ry

     iteration #  2     ecut=    20.00 Ry     beta= 0.70
     Davidson diagonalization with overlap
     ethr =  1.00E-02,  avg # of iterations =  3.7

     negative rho (up, down):  3.702E-03 0.000E+00

     total cpu time spent up to now is        1.0 secs

     total energy              =    -450.15426753 Ry
     estimated scf accuracy    <      53.77011336 Ry

     iteration #  3     ecut=    20.00 Ry     beta= 0.70
     Davidson diagonalization with overlap
     ethr =  1.00E-02,  avg # of iterations =  3.0

     negative rho (up, down):  4.905E-03 0.000E+00

     total cpu time spent up to now is        1.1 secs

     total energy              =    -449.08833477 Ry
     estimated scf accuracy    <      16.50088538 Ry

     iteration #  4     ecut=    20.00 Ry     beta= 0.70
     Davidson diagonalization with overlap
     ethr =  1.00E-02,  avg # of iterations =  2.1

     negative rho (up, down):  4.780E-03 0.000E+00

     total cpu time spent up to now is        1.2 secs

     total energy              =    -449.55138164 Ry
     estimated scf accuracy    <       8.29208119 Ry

     iteration #  5     ecut=    20.00 Ry     beta= 0.70
     Davidson diagonalization with overlap
     ethr =  1.00E-02,  avg # of iterations =  1.0
     Minimization algorithm failed to find Fermi energy: reverting to bisection
     Possible cause: smearing is larger than the electronic band-gap.

     negative rho (up, down):  7.659E-03 0.000E+00

     total cpu time spent up to now is        1.3 secs

     total energy              =    -446.07687306 Ry
     estimated scf accuracy    <       8.68017095 Ry

     iteration #  6     ecut=    20.00 Ry     beta= 0.70
     Davidson diagonalization with overlap
     ethr =  1.00E-02,  avg # of iterations =  3.9

     negative rho (up, down):  6.581E-03 0.000E+00

     total cpu time spent up to now is        1.4 secs

     total energy              =    -448.02181282 Ry
     estimated scf accuracy    <      24.66120188 Ry

     iteration #  7     ecut=    20.00 Ry     beta= 0.70
     Davidson diagonalization with overlap
     ethr =  1.00E-02,  avg # of iterations =  1.7

     negative rho (up, down):  6.380E-03 0.000E+00

     total cpu time spent up to now is        1.4 secs

     total energy              =    -448.18600004 Ry
     estimated scf accuracy    <       7.84452066 Ry

     iteration #  8     ecut=    20.00 Ry     beta= 0.70
     Davidson diagonalization with overlap
     ethr =  1.00E-02,  avg # of iterations =  1.0

     negative rho (up, down):  5.777E-03 0.000E+00

     total cpu time spent up to now is        1.5 secs

     total energy              =    -447.63126803 Ry
     estimated scf accuracy    <       5.29384216 Ry

     iteration #  9     ecut=    20.00 Ry     beta= 0.70
     Davidson diagonalization with overlap
     ethr =  1.00E-02,  avg # of iterations =  2.1

     negative rho (up, down):  5.676E-03 0.000E+00

     total cpu time spent up to now is        1.6 secs

     total energy              =    -447.97899044 Ry
     estimated scf accuracy    <       0.10890255 Ry

     iteration # 10     ecut=    20.00 Ry     beta= 0.70
     Davidson diagonalization with overlap
     ethr =  3.89E-04,  avg # of iterations =  3.6

     negative rho (up, down):  6.164E-03 0.000E+00

     total cpu time spent up to now is        1.7 secs

     total energy              =    -447.89766518 Ry
     estimated scf accuracy    <       0.28059832 Ry

     iteration # 11     ecut=    20.00 Ry     beta= 0.70
     Davidson diagonalization with overlap
     ethr =  3.89E-04,  avg # of iterations =  4.6

     negative rho (up, down):  5.999E-03 0.000E+00

     total cpu time spent up to now is        1.8 secs

     total energy              =    -447.84170866 Ry
     estimated scf accuracy    <       2.03774424 Ry

     iteration # 12     ecut=    20.00 Ry     beta= 0.70
     Davidson diagonalization with overlap
     ethr =  3.89E-04,  avg # of iterations =  3.5

     negative rho (up, down):  6.513E-03 0.000E+00

     total cpu time spent up to now is        1.9 secs

     total energy              =    -448.00131740 Ry
     estimated scf accuracy    <       0.15312238 Ry

     iteration # 13     ecut=    20.00 Ry     beta= 0.70
     Davidson diagonalization with overlap
     ethr =  3.89E-04,  avg # of iterations =  1.6

     negative rho (up, down):  6.249E-03 0.000E+00

     total cpu time spent up to now is        2.0 secs

     total energy              =    -448.00399289 Ry
     estimated scf accuracy    <       0.45323125 Ry

     iteration # 14     ecut=    20.00 Ry     beta= 0.70
     Davidson diagonalization with overlap
     ethr =  3.89E-04,  avg # of iterations =  1.0

     negative rho (up, down):  6.253E-03 0.000E+00

     total cpu time spent up to now is        2.1 secs

     total energy              =    -447.99805417 Ry
     estimated scf accuracy    <       0.38504741 Ry

     iteration # 15     ecut=    20.00 Ry     beta= 0.70
     Davidson diagonalization with overlap
     ethr =  3.89E-04,  avg # of iterations =  1.0

     negative rho (up, down):  5.903E-03 0.000E+00

     total cpu time spent up to now is        2.1 secs

     total energy              =    -447.97619200 Ry
     estimated scf accuracy    <       0.32384267 Ry

     iteration # 16     ecut=    20.00 Ry     beta= 0.70
     Davidson diagonalization with overlap
     ethr =  3.89E-04,  avg # of iterations =  1.0

     negative rho (up, down):  5.967E-03 0.000E+00

     total cpu time spent up to now is        2.2 secs

     total energy              =    -447.96477154 Ry
     estimated scf accuracy    <       0.13791839 Ry

     iteration # 17     ecut=    20.00 Ry     beta= 0.70
     Davidson diagonalization with overlap
     ethr =  3.89E-04,  avg # of iterations =  1.0

     negative rho (up, down):  6.750E-03 0.000E+00

     total cpu time spent up to now is        2.3 secs

     total energy              =    -447.93794668 Ry
     estimated scf accuracy    <       0.13460679 Ry

     iteration # 18     ecut=    20.00 Ry     beta= 0.70
     Davidson diagonalization with overlap
     ethr =  3.89E-04,  avg # of iterations =  2.1

     negative rho (up, down):  6.557E-03 0.000E+00

     total cpu time spent up to now is        2.4 secs

     total energy              =    -447.95213379 Ry
     estimated scf accuracy    <       0.00172554 Ry

     iteration # 19     ecut=    20.00 Ry     beta= 0.70
     Davidson diagonalization with overlap
     ethr =  6.16E-06,  avg # of iterations =  4.0

     negative rho (up, down):  6.631E-03 0.000E+00

     total cpu time spent up to now is        2.5 secs

     total energy              =    -447.95277995 Ry
     estimated scf accuracy    <       0.00508954 Ry

     iteration # 20     ecut=    20.00 Ry     beta= 0.70
     Davidson diagonalization with overlap
     ethr =  6.16E-06,  avg # of iterations =  1.2

     negative rho (up, down):  6.793E-03 0.000E+00

     total cpu time spent up to now is        2.6 secs

     total energy              =    -447.95197250 Ry
     estimated scf accuracy    <       0.00247279 Ry

     iteration # 21     ecut=    20.00 Ry     beta= 0.70
     Davidson diagonalization with overlap
     ethr =  6.16E-06,  avg # of iterations =  2.4

     negative rho (up, down):  6.815E-03 0.000E+00

     total cpu time spent up to now is        2.7 secs

     total energy              =    -447.95219219 Ry
     estimated scf accuracy    <       0.00602809 Ry

     iteration # 22     ecut=    20.00 Ry     beta= 0.70
     Davidson diagonalization with overlap
     ethr =  6.16E-06,  avg # of iterations =  1.5

     negative rho (up, down):  6.804E-03 0.000E+00

     total cpu time spent up to now is        2.7 secs

     total energy              =    -447.95229740 Ry
     estimated scf accuracy    <       0.00047914 Ry

     iteration # 23     ecut=    20.00 Ry     beta= 0.70
     Davidson diagonalization with overlap
     ethr =  1.71E-06,  avg # of iterations =  3.3

     negative rho (up, down):  6.787E-03 0.000E+00

     total cpu time spent up to now is        2.8 secs

     total energy              =    -447.95233219 Ry
     estimated scf accuracy    <       0.00008666 Ry

     iteration # 24     ecut=    20.00 Ry     beta= 0.70
     Davidson diagonalization with overlap
     ethr =  3.09E-07,  avg # of iterations =  2.5

     negative rho (up, down):  6.790E-03 0.000E+00

     total cpu time spent up to now is        2.9 secs

     total energy              =    -447.95234380 Ry
     estimated scf accuracy    <       0.00003789 Ry

     iteration # 25     ecut=    20.00 Ry     beta= 0.70
     Davidson diagonalization with overlap
     ethr =  1.35E-07,  avg # of iterations =  1.0

     negative rho (up, down):  6.791E-03 0.000E+00

     total cpu time spent up to now is        3.0 secs

     total energy              =    -447.95234569 Ry
     estimated scf accuracy    <       0.00000033 Ry

     iteration # 26     ecut=    20.00 Ry     beta= 0.70
     Davidson diagonalization with overlap
     ethr =  1.17E-09,  avg # of iterations =  4.2

     negative rho (up, down):  6.791E-03 0.000E+00

     total cpu time spent up to now is        3.1 secs

     total energy              =    -447.95234583 Ry
     estimated scf accuracy    <       0.00000036 Ry

     iteration # 27     ecut=    20.00 Ry     beta= 0.70
     Davidson diagonalization with overlap
     ethr =  1.17E-09,  avg # of iterations =  1.0

     negative rho (up, down):  6.791E-03 0.000E+00

     total cpu time spent up to now is        3.2 secs

     total energy              =    -447.95234583 Ry
     estimated scf accuracy    <       0.00000008 Ry

     iteration # 28     ecut=    20.00 Ry     beta= 0.70
     Davidson diagonalization with overlap
     ethr =  2.74E-10,  avg # of iterations =  1.9

     negative rho (up, down):  6.791E-03 0.000E+00

     total cpu time spent up to now is        3.3 secs

     End of self-consistent calculation

          k = 0.0000 0.0000 0.0000 (   251 PWs)   bands (ev):

   -69.6173 -39.4909 -33.9658 -33.9658 -33.9658 -15.5087 -15.5087 -15.5087
    11.0190  14.2153  14.2153  16.4874  16.4874  16.4874  19.3159  19.3159
    21.1370  21.1370

          k = 0.0000 0.0000 0.1111 (   252 PWs)   bands (ev):

   -69.6181 -39.4879 -33.9785 -33.9540 -33.9540 -15.5526 -15.5042 -15.5042
    11.2912  14.3423  14.3737  16.4763  16.4763  16.5412  19.1587  19.3136
    20.8772  20.8772

          k = 0.0000 0.0000 0.2222 (   256 PWs)   bands (ev):

   -69.6246 -39.4799 -34.0686 -33.9246 -33.9246 -15.6591 -15.4921 -15.4921
    12.0652  14.7065  14.7103  16.4575  16.4575  16.6887  18.7131  19.4834
    20.2571  20.2571

          k = 0.0000 0.0000 0.3333 (   256 PWs)   bands (ev):

   -69.5907 -39.4713 -34.0481 -33.8985 -33.8985 -15.7734 -15.4771 -15.4771
    13.2342  15.1348  15.2730  16.5108  16.5108  16.8839  18.0756  19.5360
    19.5774  19.5774

          k = 0.0000 0.0000 0.4444 (   256 PWs)   bands (ev):

   -69.5923 -39.4653 -33.9770 -33.9349 -33.9349 -15.8354 -15.4784 -15.4784
    14.4216  15.2785  15.8578  16.5379  16.5379  16.9897  17.4333  19.1939
    19.1939  19.3220

          k = 0.0000 0.1111 0.1111 (   253 PWs)   bands (ev):

   -69.6190 -39.4847 -33.9778 -33.9552 -33.9421 -15.5485 -15.5457 -15.4994
    11.5532  14.4701  14.5229  16.3652  16.4557  16.6731  19.1106  19.2447
    20.5876  20.6153

          k = 0.0000 0.1111 0.2222 (   259 PWs)   bands (ev):

   -69.6328 -39.4761 -34.0658 -33.9754 -33.9494 -15.6538 -15.5386 -15.4926
    12.2958  14.7739  14.8789  16.2771  16.4629  16.7926  18.7712  19.4349
    19.9086  19.9444

          k = 0.0000 0.1111 0.3333 (   257 PWs)   bands (ev):

   -69.5966 -39.4664 -33.9982 -33.9722 -33.9136 -15.7555 -15.5273 -15.4742
    13.3933  15.1236  15.3804  16.3386  16.5104  16.8233  18.2687  19.2877
    19.6163  19.7482

          k = 0.0000 0.1111 0.4444 (   253 PWs)   bands (ev):

   -69.5681 -39.4597 -33.9911 -33.9004 -33.8736 -15.8278 -15.5085 -15.4619
    14.4588  15.1731  15.9092  16.3886  16.6076  16.7681  17.8074  18.8926
    19.5550  19.7915

          k = 0.0000 0.2222 0.2222 (   258 PWs)   bands (ev):

   -69.6120 -39.4658 -34.0256 -33.9687 -33.9516 -15.6417 -15.6269 -15.4829
    12.9196  14.9015  15.3053  16.0715  16.4998  16.7828  18.9093  19.4131
    19.4570  19.7636

          k = 0.0000 0.2222 0.3333 (   253 PWs)   bands (ev):

   -69.5700 -39.4538 -34.0217 -33.9093 -33.8611 -15.7372 -15.6104 -15.4541
    13.7200  14.9614  15.8863  15.9973  16.5583  16.7234  18.7516  19.1044
    19.7563  20.0221

          k = 0.0000 0.2222 0.4444 (   259 PWs)   bands (ev):

   -69.6129 -39.4473 -34.0728 -34.0175 -33.8932 -15.8174 -15.6238 -15.4573
    14.3758  14.7912  15.9833  16.2720  16.3060  17.1576  18.4229  18.7140
    20.1320  20.1798

          k = 0.0000 0.3333 0.3333 (   260 PWs)   bands (ev):

   -69.6233 -39.4410 -34.1028 -34.0543 -33.8839 -15.7449 -15.7295 -15.4509
    13.9632  14.6617  15.7237  16.1360  16.5897  17.2582  19.0456  19.2030
    19.5518  20.3229

          k = 0.0000 0.3333 0.4444 (   257 PWs)   bands (ev):

   -69.5922 -39.4320 -34.0823 -34.0088 -33.8415 -15.7899 -15.7221 -15.4353
    14.1522  14.3750  15.6996  15.8481  17.1198  18.1297  18.8701  19.1495
    20.3338  20.6841

          k = 0.0000 0.4444 0.4444 (   252 PWs)   bands (ev):

   -69.5502 -39.4213 -33.9932 -33.9893 -33.7891 -15.7690 -15.7640 -15.4159
    14.0189  14.1039  15.5673  15.6197  17.8903  18.5405  19.4487  20.1663
    20.2238  21.1149

          k = 0.1111 0.1111 0.1111 (   257 PWs)   bands (ev):

   -69.6383 -39.4814 -34.0320 -33.9682 -33.9682 -15.5587 -15.5413 -15.5413
    11.8047  14.6285  14.6285  16.3401  16.3401  16.7357  19.1361  19.1361
    19.9539  20.8550

          k = 0.1111 0.1111 0.2222 (   253 PWs)   bands (ev):

   -69.5718 -39.4714 -34.0142 -33.9134 -33.8565 -15.6354 -15.5217 -15.5206
    12.5478  14.9384  14.9571  16.2589  16.3539  16.8673  18.8592  19.4220
    19.7401  20.2670

          k = 0.1111 0.1111 0.3333 (   260 PWs)   bands (ev):

   -69.6182 -39.4625 -34.0675 -33.9905 -33.9230 -15.7655 -15.5256 -15.5167
    13.5513  15.2834  15.3552  16.2812  16.3058  16.7393  18.3975  19.2839
    19.5066  19.8622

          k = 0.1111 0.1111 0.4444 (   256 PWs)   bands (ev):

   -69.5885 -39.4549 -34.0308 -33.9528 -33.8801 -15.8240 -15.5150 -15.5012
    14.5270  15.1980  15.8310  16.1437  16.5237  16.8293  18.0422  18.9598
    19.2325  20.3229

          k = 0.1111 0.2222 0.2222 (   258 PWs)   bands (ev):

   -69.6069 -39.4616 -34.0183 -34.0087 -33.9027 -15.6377 -15.6239 -15.5176
    13.1526  15.1008  15.3597  16.0339  16.2715  16.6299  18.9936  19.3916
    19.6286  19.9224

          k = 0.1111 0.2222 0.3333 (   261 PWs)   bands (ev):

   -69.6255 -39.4504 -34.0728 -34.0043 -33.9430 -15.7452 -15.6198 -15.5115
    13.9250  15.1254  15.8021  15.9727  16.3165  16.5502  18.8126  19.1778
    19.5726  20.1834

          k = 0.1111 0.2222 0.4444 (   258 PWs)   bands (ev):

   -69.6018 -39.4423 -34.0249 -33.9954 -33.9203 -15.8106 -15.6090 -15.4972
    14.5519  14.9270  15.8741  16.0165  16.3561  17.1510  18.6230  18.7569
    19.4984  20.7373

          k = 0.1111 0.3333 0.3333 (   261 PWs)   bands (ev):

   -69.6216 -39.4368 -34.0736 -34.0658 -33.8994 -15.7355 -15.7220 -15.4954
    14.2051  14.8391  15.6806  16.0092  16.6061  17.0020  19.0163  19.2819
    19.5004  20.6607

          k = 0.1111 0.3333 0.4444 (   258 PWs)   bands (ev):

   -69.5963 -39.4277 -34.0546 -34.0367 -33.8614 -15.7910 -15.7122 -15.4771
    14.3587  14.5415  15.6703  15.7781  17.0510  17.9269  18.8162  19.2655
    19.6621  20.9580

          k = 0.1111 0.4444 0.4444 (   256 PWs)   bands (ev):

   -69.5760 -39.4177 -34.0444 -34.0272 -33.8233 -15.7772 -15.7727 -15.4598
    14.2175  14.3039  15.5261  15.5735  17.8593  18.4646  19.2035  19.5369
    19.6873  21.1487

          k = 0.2222 0.2222 0.2222 (   257 PWs)   bands (ev):

   -69.5879 -39.4516 -33.9588 -33.9528 -33.9528 -15.6300 -15.6080 -15.6080
    13.7894  15.5337  15.5337  16.0015  16.0015  16.1977  19.2364  19.2364
    20.0986  20.2041

          k = 0.2222 0.2222 0.3333 (   261 PWs)   bands (ev):

   -69.6218 -39.4389 -34.0550 -34.0084 -33.9570 -15.7318 -15.6104 -15.6030
    14.4940  15.5091  15.6344  15.9121  15.9628  16.3988  19.1303  19.2661
    19.5285  20.4051

          k = 0.2222 0.2222 0.4444 (   255 PWs)   bands (ev):

   -69.5720 -39.4299 -33.9836 -33.9521 -33.9032 -15.7869 -15.5943 -15.5785
    14.8968  15.1458  15.6811  16.0099  16.1541  17.2077  18.8723  19.0593
    19.2192  20.7673

          k = 0.2222 0.3333 0.3333 (   259 PWs)   bands (ev):

   -69.6055 -39.4252 -34.0386 -34.0212 -33.9224 -15.7137 -15.7123 -15.5898
    14.8541  15.2488  15.6257  15.7696  16.4997  16.5427  19.0863  19.2917
    19.7032  20.5104

          k = 0.2222 0.3333 0.4444 (   264 PWs)   bands (ev):

   -69.6440 -39.4173 -34.1158 -34.0940 -33.9533 -15.7915 -15.7144 -15.5913
    14.8151  15.0275  15.5512  15.6981  16.7279  17.4660  18.6879  19.0209
    19.6668  20.8076

          k = 0.2222 0.4444 0.4444 (   261 PWs)   bands (ev):

   -69.6181 -39.4080 -34.0770 -34.0423 -33.9374 -15.7769 -15.7714 -15.5769
    14.6865  14.8971  15.4748  15.5007  17.6559  17.9379  18.7159  18.7585
    19.9567  21.1381

          k = 0.3333 0.3333 0.3333 (   259 PWs)   bands (ev):

   -69.5978 -39.4123 -34.0194 -34.0194 -33.9293 -15.6990 -15.6990 -15.6899
    15.1453  15.6009  15.6009  15.9456  16.3942  16.3942  19.0049  19.0049
    20.3614  20.3614

          k = 0.3333 0.3333 0.4444 (   265 PWs)   bands (ev):

   -69.6437 -39.4048 -34.1122 -34.0982 -33.9650 -15.7862 -15.7127 -15.6853
    15.0767  15.3357  15.5085  16.2660  16.2758  17.2098  18.5202  18.7404
    20.2647  20.8441

          k = 0.3333 0.4444 0.4444 (   268 PWs)   bands (ev):

   -69.6589 -39.3970 -34.1613 -34.1337 -33.9573 -15.7866 -15.7780 -15.6817
    15.1160  15.4212  15.4389  15.9075  17.1311  17.1917  18.2883  18.5143
    20.5969  21.1166

          k = 0.4444 0.4444 0.4444 (   280 PWs)   bands (ev):

   -69.7719 -39.3911 -34.2360 -34.2360 -34.2285 -15.7954 -15.7954 -15.7913
    15.3364  15.4530  15.4530  16.6742  16.6742  16.6914  18.1470  18.1470
    21.0570  21.0570

     the Fermi energy is    18.0912 ev

!    total energy              =    -447.95234584 Ry
     estimated scf accuracy    <          1.3E-09 Ry
     smearing contrib. (-TS)   =      -0.00001272 Ry
     internal energy E=F+TS    =    -447.95233312 Ry

     The total energy is F=E-TS. E is the sum of the following terms:
     one-electron contribution =    -149.78787214 Ry
     hartree contribution      =      90.78250797 Ry
     xc contribution           =     -53.15275645 Ry
     ewald contribution        =    -259.82070277 Ry
     one-center paw contrib.   =     -75.97350973 Ry

     convergence has been achieved in  28 iterations

     negative rho (up, down):  6.791E-03 0.000E+00

     Forces acting on atoms (cartesian axes, Ry/au):

     atom    1 type  1   force =     0.00000000    0.00000000    0.00000000
     atom    2 type  2   force =     0.00000000    0.00000000    0.00000000

     Total force =     0.000000     Total SCF correction =     0.000000


     Computing stress (Cartesian axis) and pressure


     negative rho (up, down):  6.791E-03 0.000E+00
          total   stress  (Ry/bohr**3)                   (kbar)     P=    -1420.03
  -0.00965316   0.00000000   0.00000000        -1420.03        0.00        0.00
   0.00000000  -0.00965316   0.00000000            0.00    -1420.03        0.00
   0.00000000   0.00000000  -0.00965316            0.00        0.00    -1420.03


     Writing all to output data dir ./TiFe.save/ :
     XML data file, charge density, pseudopotentials, collected wavefunctions

     init_run     :      0.24s CPU      0.29s WALL (       1 calls)
     electrons    :      2.27s CPU      2.52s WALL (       1 calls)
     forces       :      0.00s CPU      0.01s WALL (       1 calls)
     stress       :      0.02s CPU      0.02s WALL (       1 calls)

     Called by init_run:
     wfcinit      :      0.02s CPU      0.02s WALL (       1 calls)
     potinit      :      0.06s CPU      0.06s WALL (       1 calls)
     hinit0       :      0.16s CPU      0.19s WALL (       1 calls)

     Called by electrons:
     c_bands      :      1.07s CPU      1.16s WALL (      28 calls)
     sum_band     :      0.14s CPU      0.15s WALL (      28 calls)
     v_of_rho     :      0.01s CPU      0.01s WALL (      29 calls)
     newd         :      0.02s CPU      0.03s WALL (      29 calls)
     PAW_pot      :      1.04s CPU      1.14s WALL (      29 calls)
     mix_rho      :      0.01s CPU      0.01s WALL (      28 calls)

     Called by c_bands:
     init_us_2    :      0.01s CPU      0.01s WALL (    1062 calls)
     cegterg      :      0.99s CPU      1.07s WALL (     504 calls)

     Called by *egterg:
     cdiaghg      :      0.45s CPU      0.47s WALL (    1690 calls)
     h_psi        :      0.44s CPU      0.47s WALL (    1708 calls)
     s_psi        :      0.01s CPU      0.01s WALL (    1708 calls)
     g_psi        :      0.00s CPU      0.00s WALL (    1186 calls)

     Called by h_psi:
     h_psi:calbec :      0.03s CPU      0.03s WALL (    1708 calls)
     vloc_psi     :      0.39s CPU      0.42s WALL (    1708 calls)
     add_vuspsi   :      0.01s CPU      0.02s WALL (    1708 calls)

     General routines
     calbec       :      0.05s CPU      0.05s WALL (    2518 calls)
     fft          :      0.14s CPU      0.14s WALL (     400 calls)
     ffts         :      0.02s CPU      0.02s WALL (      57 calls)
     fftw         :      0.40s CPU      0.43s WALL (   51598 calls)
     interpolate  :      0.02s CPU      0.02s WALL (      29 calls)

     Parallel routines

     PWSCF        :      2.74s CPU      3.80s WALL


   This run was terminated on:  10:38:54  28Oct2025            

=------------------------------------------------------------------------------=
   JOB DONE.
=------------------------------------------------------------------------------=
Note: The following floating-point exceptions are signalling: IEEE_UNDERFLOW_FLAG IEEE_DENORMAL
Note: The following floating-point exceptions are signalling: IEEE_UNDERFLOW_FLAG IEEE_DENORMAL
Note: The following floating-point exceptions are signalling: IEEE_UNDERFLOW_FLAG IEEE_DENORMAL
Note: The following floating-point exceptions are signalling: IEEE_UNDERFLOW_FLAG IEEE_DENORMAL
Note: The following floating-point exceptions are signalling: IEEE_UNDERFLOW_FLAG IEEE_DENORMAL
Note: The following floating-point exceptions are signalling: IEEE_UNDERFLOW_FLAG IEEE_DENORMAL
Note: The following floating-point exceptions are signalling: IEEE_UNDERFLOW_FLAG IEEE_DENORMAL
Note: The following floating-point exceptions are signalling: IEEE_UNDERFLOW_FLAG IEEE_DENORMAL
Note: The following floating-point exceptions are signalling: IEEE_UNDERFLOW_FLAG IEEE_DENORMAL
Note: The following floating-point exceptions are signalling: IEEE_UNDERFLOW_FLAG IEEE_DENORMAL
Note: The following floating-point exceptions are signalling: IEEE_UNDERFLOW_FLAG IEEE_DENORMAL
Note: The following floating-point exceptions are signalling: IEEE_UNDERFLOW_FLAG IEEE_DENORMAL
Note: The following floating-point exceptions are signalling: IEEE_UNDERFLOW_FLAG IEEE_DENORMAL
Note: The following floating-point exceptions are signalling: IEEE_UNDERFLOW_FLAG IEEE_DENORMAL
Note: The following floating-point exceptions are signalling: IEEE_UNDERFLOW_FLAG IEEE_DENORMAL
Note: The following floating-point exceptions are signalling: IEEE_UNDERFLOW_FLAG IEEE_DENORMAL
