
     Program PWSCF v.7.4 starts on 27Oct2025 at  2:21:26 

     This program is part of the open-source Quantum ESPRESSO suite
     for quantum simulation of materials; please cite
         "P. Giannozzi et al., J. Phys.:Condens. Matter 21 395502 (2009);
         "P. Giannozzi et al., J. Phys.:Condens. Matter 29 465901 (2017);
         "P. Giannozzi et al., J. Chem. Phys. 152 154105 (2020);
          URL http://www.quantum-espresso.org", 
     in publications or presentations arising from this work. More details at
     http://www.quantum-espresso.org/quote

     Parallel version (MPI & OpenMP), running on       8 processor cores
     Number of MPI processes:                 8
     Threads/MPI process:                     1

     MPI processes distributed on     1 nodes
     218819 MiB available memory on the printing compute node when the environment starts

     Reading input from TiFe2_kmesh_convergence/TiFe2_k444.in

     Current dimensions of program PWSCF are:
     Max number of different atomic species (ntypx) = 10
     Max number of k-points (npk) =  40000
     Max angular momentum in pseudopotentials (lmaxx) =  4
     file Fe.pbe-spn-kjpaw_psl.0.2.1.UPF: wavefunction(s)  3D renormalized

     IMPORTANT: XC functional enforced from input :
     Exchange-correlation= PBE
                           (   1   4   3   4   0   0   0)
     Any further DFT definition will be discarded
     Please, verify this is what you really want

     Message from routine setup:
     using ibrav=0 with symmetry is DISCOURAGED, use correct ibrav instead

     R & G space division:  proc/nbgrp/npool/nimage =       8
     Subspace diagonalization in iterative solution of the eigenvalue problem:
     a serial algorithm will be used


     Parallelization info
     --------------------
     sticks:   dense  smooth     PW     G-vecs:    dense   smooth      PW
     Min         563     185     52                49655     9309    1374
     Max         564     186     53                49666     9318    1379
     Sum        4507    1483    421               397277    74505   11019

     Using Slab Decomposition



     bravais-lattice index     =            0
     lattice parameter (alat)  =       9.1568  a.u.
     unit-cell volume          =    1075.5644 (a.u.)^3
     number of atoms/cell      =           12
     number of atomic types    =            2
     number of electrons       =       176.00
     number of Kohn-Sham states=          106
     kinetic-energy cutoff     =      64.0000  Ry
     charge density cutoff     =     782.0000  Ry
     scf convergence threshold =      1.0E-08
     mixing beta               =       0.7000
     number of iterations used =            8  plain     mixing
     Exchange-correlation= PBE
                           (   1   4   3   4   0   0   0)

     celldm(1)=   9.156781  celldm(2)=   0.000000  celldm(3)=   0.000000
     celldm(4)=   0.000000  celldm(5)=   0.000000  celldm(6)=   0.000000

     crystal axes: (cart. coord. in units of alat)
               a(1) = (   1.000000   0.000000   0.000000 )  
               a(2) = (  -0.500000   0.866025   0.000000 )  
               a(3) = (   0.000000   0.000000   1.617623 )  

     reciprocal axes: (cart. coord. in units 2 pi/alat)
               b(1) = (  1.000000  0.577350 -0.000000 )  
               b(2) = (  0.000000  1.154701  0.000000 )  
               b(3) = (  0.000000 -0.000000  0.618191 )  


     PseudoPot. # 1 for Fe read from file:
     ./Fe.pbe-spn-kjpaw_psl.0.2.1.UPF
     MD5 check sum: e86618425769142926afa95317d90200
     Pseudo is Projector augmented-wave + core cor, Zval = 16.0
     Generated using "atomic" code by A. Dal Corso  v.5.0.99 svn rev. 10869
     Shape of augmentation charge: PSQ
     Using radial grid of 1191 points,  6 beta functions with: 
                l(1) =   0
                l(2) =   0
                l(3) =   1
                l(4) =   1
                l(5) =   2
                l(6) =   2
     Q(r) pseudized with 0 coefficients 


     PseudoPot. # 2 for Ti read from file:
     ./Ti_pbe_v1.4.uspp.F.UPF
     MD5 check sum: 88a00a6731bd790ddea75d31a80cb452
     Pseudo is Ultrasoft + core correction, Zval = 12.0
     Generated by new atomic code, or converted to UPF format
     Using radial grid of  851 points,  6 beta functions with: 
                l(1) =   0
                l(2) =   0
                l(3) =   1
                l(4) =   1
                l(5) =   2
                l(6) =   2
     Q(r) pseudized with  6 coefficients,  rinner =    1.000   1.000   1.000
                                                       1.000   1.000

     atomic species   valence    mass     pseudopotential
     Fe               16.00    55.84500     Fe( 1.00)
     Ti               12.00    47.86700     Ti( 1.00)

     24 Sym. Ops., with inversion, found (12 have fractional translation)



   Cartesian axes

     site n.     atom                  positions (alat units)
         1        Fe     tau(   1) = (   0.7465670   0.1463196   0.4044057  )
         2        Fe     tau(   2) = (  -0.2465670   0.7197058   1.2132171  )
         3        Fe     tau(   3) = (  -0.0000000   0.2926392   1.2132171  )
         4        Fe     tau(   4) = (   0.2534330   0.1463196   0.4044057  )
         5        Fe     tau(   5) = (   0.5000000   0.5733862   0.4044057  )
         6        Fe     tau(   6) = (   0.2465670   0.7197058   1.2132171  )
         7        Fe     tau(   7) = (   0.0000000   0.0000000   0.0000000  )
         8        Fe     tau(   8) = (   0.0000000   0.0000000   0.8088114  )
         9        Ti     tau(   9) = (   0.5000000   0.2886751   1.5200090  )
        10        Ti     tau(  10) = (  -0.0000000   0.5773503   0.7111976  )
        11        Ti     tau(  11) = (  -0.0000000   0.5773503   0.0976138  )
        12        Ti     tau(  12) = (   0.5000000   0.2886751   0.9064252  )

     number of k points=    12  Marzari-Vanderbilt smearing, width (Ry)=  0.0050
                       cart. coord. in units 2pi/alat
        k(    1) = (   0.0000000   0.0000000   0.0000000), wk =   0.0312500
        k(    2) = (   0.0000000   0.0000000   0.1545478), wk =   0.0625000
        k(    3) = (   0.0000000   0.0000000  -0.3090955), wk =   0.0312500
        k(    4) = (   0.0000000   0.2886751   0.0000000), wk =   0.1875000
        k(    5) = (   0.0000000   0.2886751   0.1545478), wk =   0.3750000
        k(    6) = (   0.0000000   0.2886751  -0.3090955), wk =   0.1875000
        k(    7) = (   0.0000000  -0.5773503   0.0000000), wk =   0.0937500
        k(    8) = (   0.0000000  -0.5773503   0.1545478), wk =   0.1875000
        k(    9) = (   0.0000000  -0.5773503  -0.3090955), wk =   0.0937500
        k(   10) = (   0.2500000   0.4330127   0.0000000), wk =   0.1875000
        k(   11) = (   0.2500000   0.4330127   0.1545478), wk =   0.3750000
        k(   12) = (   0.2500000   0.4330127  -0.3090955), wk =   0.1875000

     Dense  grid:   397277 G-vectors     FFT dimensions: (  81,  81, 144)

     Smooth grid:    74505 G-vectors     FFT dimensions: (  48,  48,  80)

     Estimated max dynamical RAM per process >     220.76 MB

     Estimated total dynamical RAM >       1.72 GB

     Check: negative core charge=   -0.000017

     Initial potential from superposition of free atoms

     starting charge     171.9963, renormalised to     176.0000

     negative rho (up, down):  6.092E-03 0.000E+00
     Starting wfcs are  144 randomized atomic wfcs
     Checking if some PAW data can be deallocated... 

     total cpu time spent up to now is        3.1 secs

     per-process dynamical memory:   169.2 Mb

     Self-consistent Calculation

     iteration #  1     ecut=    64.00 Ry     beta= 0.70
     Davidson diagonalization with overlap
     ethr =  1.00E-02,  avg # of iterations =  2.0

     negative rho (up, down):  2.163E-04 0.000E+00

     total cpu time spent up to now is        7.3 secs

     total energy              =   -3017.06368774 Ry
     estimated scf accuracy    <     116.46559888 Ry

     iteration #  2     ecut=    64.00 Ry     beta= 0.70
     Davidson diagonalization with overlap
     ethr =  1.00E-02,  avg # of iterations =  6.7

     total cpu time spent up to now is       15.2 secs

     total energy              =   -3076.03245698 Ry
     estimated scf accuracy    <     698.49920551 Ry

     iteration #  3     ecut=    64.00 Ry     beta= 0.70
     Davidson diagonalization with overlap
     ethr =  1.00E-02,  avg # of iterations =  5.1

     total cpu time spent up to now is       21.3 secs

     total energy              =   -3120.83431068 Ry
     estimated scf accuracy    <      91.72034523 Ry

     iteration #  4     ecut=    64.00 Ry     beta= 0.70
     Davidson diagonalization with overlap
     ethr =  1.00E-02,  avg # of iterations =  1.4

     negative rho (up, down):  1.174E-05 0.000E+00

     total cpu time spent up to now is       24.9 secs

     total energy              =   -3116.39246273 Ry
     estimated scf accuracy    <      54.16480688 Ry

     iteration #  5     ecut=    64.00 Ry     beta= 0.70
     Davidson diagonalization with overlap
     ethr =  1.00E-02,  avg # of iterations =  1.5

     negative rho (up, down):  1.067E-04 0.000E+00

     total cpu time spent up to now is       28.5 secs

     total energy              =   -3115.15873833 Ry
     estimated scf accuracy    <      41.97149101 Ry

     iteration #  6     ecut=    64.00 Ry     beta= 0.70
     Davidson diagonalization with overlap
     ethr =  1.00E-02,  avg # of iterations =  1.0

     negative rho (up, down):  4.073E-04 0.000E+00

     total cpu time spent up to now is       32.0 secs

     total energy              =   -3113.62500054 Ry
     estimated scf accuracy    <      26.16911747 Ry

     iteration #  7     ecut=    64.00 Ry     beta= 0.70
     Davidson diagonalization with overlap
     ethr =  1.00E-02,  avg # of iterations =  1.0

     negative rho (up, down):  1.143E-03 0.000E+00

     total cpu time spent up to now is       35.5 secs

     total energy              =   -3111.14133086 Ry
     estimated scf accuracy    <      18.17575533 Ry

     iteration #  8     ecut=    64.00 Ry     beta= 0.70
     Davidson diagonalization with overlap
     ethr =  1.00E-02,  avg # of iterations =  1.0

     negative rho (up, down):  1.434E-03 0.000E+00

     total cpu time spent up to now is       39.0 secs

     total energy              =   -3111.45162757 Ry
     estimated scf accuracy    <       5.45044543 Ry

     iteration #  9     ecut=    64.00 Ry     beta= 0.70
     Davidson diagonalization with overlap
     ethr =  3.10E-03,  avg # of iterations =  1.9

     negative rho (up, down):  2.822E-03 0.000E+00

     total cpu time spent up to now is       42.8 secs

     total energy              =   -3111.02164459 Ry
     estimated scf accuracy    <       4.36508178 Ry

     iteration # 10     ecut=    64.00 Ry     beta= 0.70
     Davidson diagonalization with overlap
     ethr =  2.48E-03,  avg # of iterations =  2.2

     negative rho (up, down):  4.715E-03 0.000E+00

     total cpu time spent up to now is       46.6 secs

     total energy              =   -3111.09196022 Ry
     estimated scf accuracy    <       0.52073229 Ry

     iteration # 11     ecut=    64.00 Ry     beta= 0.70
     Davidson diagonalization with overlap
     ethr =  2.96E-04,  avg # of iterations =  7.1

     negative rho (up, down):  4.453E-03 0.000E+00

     total cpu time spent up to now is       52.9 secs

     total energy              =   -3111.37406000 Ry
     estimated scf accuracy    <       1.49692819 Ry

     iteration # 12     ecut=    64.00 Ry     beta= 0.70
     Davidson diagonalization with overlap
     ethr =  2.96E-04,  avg # of iterations =  1.1

     negative rho (up, down):  1.823E-03 0.000E+00

     total cpu time spent up to now is       56.4 secs

     total energy              =   -3110.93109183 Ry
     estimated scf accuracy    <       2.06568615 Ry

     iteration # 13     ecut=    64.00 Ry     beta= 0.70
     Davidson diagonalization with overlap
     ethr =  2.96E-04,  avg # of iterations =  4.9

     negative rho (up, down):  3.433E-03 0.000E+00

     total cpu time spent up to now is       61.9 secs

     total energy              =   -3111.17665150 Ry
     estimated scf accuracy    <       2.58731832 Ry

     iteration # 14     ecut=    64.00 Ry     beta= 0.70
     Davidson diagonalization with overlap
     ethr =  2.96E-04,  avg # of iterations =  2.6

     negative rho (up, down):  3.669E-03 0.000E+00

     total cpu time spent up to now is       66.0 secs

     total energy              =   -3111.27752185 Ry
     estimated scf accuracy    <       0.10118893 Ry

     iteration # 15     ecut=    64.00 Ry     beta= 0.70
     Davidson diagonalization with overlap
     ethr =  5.75E-05,  avg # of iterations =  5.2

     negative rho (up, down):  3.683E-03 0.000E+00

     total cpu time spent up to now is       70.9 secs

     total energy              =   -3111.29086026 Ry
     estimated scf accuracy    <       0.00414265 Ry

     iteration # 16     ecut=    64.00 Ry     beta= 0.70
     Davidson diagonalization with overlap
     ethr =  2.35E-06,  avg # of iterations =  6.0

     negative rho (up, down):  3.596E-03 0.000E+00

     total cpu time spent up to now is       76.4 secs

     total energy              =   -3111.29154684 Ry
     estimated scf accuracy    <       0.00383042 Ry

     iteration # 17     ecut=    64.00 Ry     beta= 0.70
     Davidson diagonalization with overlap
     ethr =  2.18E-06,  avg # of iterations =  3.8

     negative rho (up, down):  3.772E-03 0.000E+00

     total cpu time spent up to now is       80.6 secs

     total energy              =   -3111.29107623 Ry
     estimated scf accuracy    <       0.01095619 Ry

     iteration # 18     ecut=    64.00 Ry     beta= 0.70
     Davidson diagonalization with overlap
     ethr =  2.18E-06,  avg # of iterations =  2.9

     negative rho (up, down):  3.742E-03 0.000E+00

     total cpu time spent up to now is       84.8 secs

     total energy              =   -3111.29209532 Ry
     estimated scf accuracy    <       0.00198884 Ry

     iteration # 19     ecut=    64.00 Ry     beta= 0.70
     Davidson diagonalization with overlap
     ethr =  1.13E-06,  avg # of iterations =  1.2

     negative rho (up, down):  3.722E-03 0.000E+00

     total cpu time spent up to now is       88.3 secs

     total energy              =   -3111.29210914 Ry
     estimated scf accuracy    <       0.00033902 Ry

     iteration # 20     ecut=    64.00 Ry     beta= 0.70
     Davidson diagonalization with overlap
     ethr =  1.93E-07,  avg # of iterations =  2.3

     negative rho (up, down):  3.726E-03 0.000E+00

     total cpu time spent up to now is       92.1 secs

     total energy              =   -3111.29212947 Ry
     estimated scf accuracy    <       0.00000863 Ry

     iteration # 21     ecut=    64.00 Ry     beta= 0.70
     Davidson diagonalization with overlap
     ethr =  4.90E-09,  avg # of iterations =  5.4

     negative rho (up, down):  3.723E-03 0.000E+00

     total cpu time spent up to now is       98.2 secs

     total energy              =   -3111.29213318 Ry
     estimated scf accuracy    <       0.00003231 Ry

     iteration # 22     ecut=    64.00 Ry     beta= 0.70
     Davidson diagonalization with overlap
     ethr =  4.90E-09,  avg # of iterations =  1.3

     negative rho (up, down):  3.721E-03 0.000E+00

     total cpu time spent up to now is      101.7 secs

     total energy              =   -3111.29213251 Ry
     estimated scf accuracy    <       0.00001013 Ry

     iteration # 23     ecut=    64.00 Ry     beta= 0.70
     Davidson diagonalization with overlap
     ethr =  4.90E-09,  avg # of iterations =  2.2

     negative rho (up, down):  3.720E-03 0.000E+00

     total cpu time spent up to now is      105.5 secs

     total energy              =   -3111.29213308 Ry
     estimated scf accuracy    <       0.00000004 Ry

     iteration # 24     ecut=    64.00 Ry     beta= 0.70
     Davidson diagonalization with overlap
     ethr =  2.13E-11,  avg # of iterations =  8.2

     negative rho (up, down):  3.721E-03 0.000E+00

     total cpu time spent up to now is      114.5 secs

     total energy              =   -3111.29213319 Ry
     estimated scf accuracy    <       0.00000032 Ry

     iteration # 25     ecut=    64.00 Ry     beta= 0.70
     Davidson diagonalization with overlap
     ethr =  2.13E-11,  avg # of iterations =  1.8

     negative rho (up, down):  3.721E-03 0.000E+00

     total cpu time spent up to now is      118.2 secs

     total energy              =   -3111.29213319 Ry
     estimated scf accuracy    <       0.00000005 Ry

     iteration # 26     ecut=    64.00 Ry     beta= 0.70
     Davidson diagonalization with overlap
     ethr =  2.13E-11,  avg # of iterations =  1.1

     negative rho (up, down):  3.721E-03 0.000E+00

     total cpu time spent up to now is      121.7 secs

     total energy              =   -3111.29213319 Ry
     estimated scf accuracy    <       0.00000002 Ry

     iteration # 27     ecut=    64.00 Ry     beta= 0.70
     Davidson diagonalization with overlap
     ethr =  1.03E-11,  avg # of iterations =  3.2

     negative rho (up, down):  3.720E-03 0.000E+00

     total cpu time spent up to now is      125.7 secs

     End of self-consistent calculation

          k = 0.0000 0.0000 0.0000 (  9343 PWs)   bands (ev):

   -70.7964 -70.7746 -70.7363 -70.7142 -70.7116 -70.7116 -70.7115 -70.7115
   -40.8865 -40.8723 -40.8370 -40.8217 -37.2002 -37.1314 -37.0124 -36.8977
   -36.8977 -36.8782 -36.8782 -36.8572 -36.8572 -36.7960 -36.7919 -36.7444
   -36.7444 -36.7429 -36.7429 -36.6494 -36.6494 -36.6443 -36.6413 -36.6413
   -36.6401 -36.6401 -36.6229 -36.6228 -17.1793 -17.1793 -17.1653 -17.1653
   -17.1598 -17.1582 -17.0192 -17.0162 -17.0060 -17.0060 -16.9914 -16.9914
     8.6218  10.6548  11.4280  12.0154  12.5072  12.6034  12.7657  12.7657
    12.9872  12.9872  13.1986  13.2925  13.3835  13.3835  13.8247  13.8247
    13.9647  13.9647  14.2069  14.2920  14.2920  14.3186  14.3186  14.7757
    14.7757  14.9128  15.3930  15.3930  15.5134  15.5134  15.8259  15.9058
    15.9058  15.9088  15.9088  16.0565  16.0565  16.0693  16.0726  16.1305
    16.1564  16.1564  16.2327  16.2714  16.2714  16.7278  16.7278  16.7570
    16.9875  16.9875  17.2820  17.2820  17.4842  17.4842  17.5032  17.5035
    17.7798  17.7798

          k = 0.0000 0.0000 0.1545 (  9272 PWs)   bands (ev):

   -70.7940 -70.7790 -70.7318 -70.7165 -70.7115 -70.7115 -70.7115 -70.7115
   -40.8849 -40.8751 -40.8340 -40.8234 -37.1932 -37.1475 -36.9849 -36.8962
   -36.8962 -36.8847 -36.8847 -36.8610 -36.8430 -36.8430 -36.7809 -36.7809
   -36.7331 -36.7073 -36.7073 -36.6567 -36.6567 -36.6548 -36.6406 -36.6406
   -36.6403 -36.6403 -36.6227 -36.6226 -17.1774 -17.1774 -17.1675 -17.1675
   -17.1591 -17.1579 -17.0192 -17.0171 -17.0038 -17.0038 -16.9935 -16.9935
     8.7939  10.0350  11.8879  12.0170  12.3996  12.7949  12.7949  12.9260
    12.9492  12.9492  12.9519  13.4197  13.4419  13.4419  13.7648  13.7648
    13.9443  13.9443  14.1296  14.1296  14.3666  14.5547  14.5547  14.8877
    14.8877  14.9897  15.2402  15.2402  15.3515  15.3515  15.5985  15.6728
    15.9346  15.9346  16.0287  16.0287  16.0782  16.0794  16.0794  16.1215
    16.1612  16.1612  16.2124  16.2124  16.4801  16.8355  16.8355  16.9699
    16.9699  17.1922  17.2608  17.2608  17.5032  17.5035  17.5036  17.5036
    17.7422  17.7422

          k = 0.0000 0.0000-0.3091 (  9374 PWs)   bands (ev):

   -70.7875 -70.7875 -70.7233 -70.7233 -70.7116 -70.7116 -70.7116 -70.7116
   -40.8805 -40.8805 -40.8282 -40.8282 -37.1744 -37.1744 -36.9281 -36.9281
   -36.8923 -36.8923 -36.8923 -36.8923 -36.8158 -36.8158 -36.8158 -36.8158
   -36.6854 -36.6854 -36.6773 -36.6773 -36.6773 -36.6773 -36.6406 -36.6406
   -36.6406 -36.6406 -36.6229 -36.6229 -17.1726 -17.1726 -17.1726 -17.1726
   -17.1581 -17.1581 -17.0187 -17.0187 -16.9985 -16.9985 -16.9985 -16.9985
     9.2902   9.2902  12.0206  12.0206  12.6655  12.6655  12.8684  12.8684
    12.8684  12.8684  13.2849  13.2849  13.5901  13.5901  13.5901  13.5901
    14.0073  14.0073  14.0073  14.0073  14.8647  14.8647  14.8647  14.8647
    14.8801  14.8801  15.1495  15.1495  15.1495  15.1495  15.3174  15.3174
    15.9933  15.9933  15.9933  15.9933  16.0640  16.0640  16.0640  16.0640
    16.0997  16.0997  16.5877  16.5877  16.5877  16.5877  16.9911  16.9911
    17.1442  17.1442  17.1442  17.1442  17.5033  17.5033  17.6300  17.6300
    17.6300  17.6300

          k = 0.0000 0.2887 0.0000 (  9300 PWs)   bands (ev):

   -70.7889 -70.7667 -70.7363 -70.7297 -70.7194 -70.7116 -70.7115 -70.7036
   -40.8806 -40.8659 -40.8436 -40.8280 -37.1541 -37.0862 -37.0071 -36.9006
   -36.8875 -36.8683 -36.8641 -36.8570 -36.8449 -36.7916 -36.7833 -36.7564
   -36.7465 -36.7451 -36.7430 -36.6911 -36.6776 -36.6714 -36.6606 -36.6476
   -36.6411 -36.6346 -36.6338 -36.6316 -17.1974 -17.1880 -17.1730 -17.1664
   -17.1560 -17.1246 -17.0504 -17.0167 -17.0078 -16.9979 -16.9832 -16.9781
     9.2102  11.0924  11.8096  12.1959  12.5354  12.5793  12.6007  12.8661
    12.9615  13.0746  13.3319  13.4718  13.5044  13.5968  13.7155  13.9366
    13.9455  14.1804  14.1878  14.2697  14.3290  14.3578  14.4334  14.5039
    14.5275  14.6320  14.7259  14.9945  14.9966  15.1142  15.2691  15.2734
    15.5052  15.6851  15.7504  15.9311  16.0954  16.1018  16.1155  16.1435
    16.1892  16.2690  16.4721  16.5294  16.6176  16.6311  16.7306  16.8472
    16.9518  17.0467  17.0975  17.2291  17.3107  17.5641  17.5979  17.6713
    17.6771  18.0713

          k = 0.0000 0.2887 0.1545 (  9296 PWs)   bands (ev):

   -70.7865 -70.7714 -70.7338 -70.7300 -70.7172 -70.7116 -70.7115 -70.7058
   -40.8790 -40.8691 -40.8402 -40.8297 -37.1480 -37.1042 -36.9810 -36.9067
   -36.8898 -36.8677 -36.8615 -36.8503 -36.8414 -36.8335 -36.7889 -36.7788
   -36.7378 -36.7204 -36.7105 -36.6889 -36.6742 -36.6737 -36.6597 -36.6543
   -36.6467 -36.6424 -36.6327 -36.6316 -17.1936 -17.1859 -17.1754 -17.1727
   -17.1504 -17.1293 -17.0458 -17.0240 -17.0005 -16.9956 -16.9852 -16.9813
     9.3725  10.5306  12.1488  12.2517  12.4431  12.5990  12.7249  12.9195
    13.0011  13.1180  13.2335  13.3790  13.5830  13.6098  13.7359  13.9045
    13.9129  14.0664  14.1059  14.2060  14.3230  14.4681  14.5968  14.6026
    14.6207  14.7114  14.8285  14.9389  14.9643  15.1327  15.2205  15.3623
    15.4068  15.6795  15.7489  15.7853  15.9619  15.9633  16.0665  16.0915
    16.1987  16.3130  16.3885  16.5256  16.6112  16.6935  16.7460  16.8440
    17.0296  17.1163  17.2125  17.2591  17.2984  17.4794  17.5872  17.6572
    17.8689  18.0069

          k = 0.0000 0.2887-0.3091 (  9326 PWs)   bands (ev):

   -70.7799 -70.7799 -70.7311 -70.7311 -70.7116 -70.7116 -70.7114 -70.7114
   -40.8748 -40.8748 -40.8343 -40.8343 -37.1303 -37.1303 -36.9359 -36.9359
   -36.8788 -36.8788 -36.8657 -36.8657 -36.8227 -36.8227 -36.8100 -36.8100
   -36.7130 -36.7130 -36.6852 -36.6852 -36.6734 -36.6734 -36.6607 -36.6607
   -36.6557 -36.6557 -36.6320 -36.6320 -17.1838 -17.1838 -17.1808 -17.1808
   -17.1398 -17.1398 -17.0353 -17.0353 -16.9903 -16.9903 -16.9898 -16.9898
     9.8386   9.8386  12.2198  12.2198  12.6013  12.6013  12.8947  12.8947
    13.0608  13.0608  13.2538  13.2538  13.6493  13.6493  13.7454  13.7454
    13.9902  13.9902  14.1103  14.1103  14.4668  14.4668  14.7212  14.7212
    14.7219  14.7219  14.8818  14.8818  15.0621  15.0621  15.2023  15.2023
    15.6080  15.6080  15.7613  15.7613  15.8545  15.8545  15.8847  15.8847
    16.2984  16.2984  16.4705  16.4705  16.6710  16.6710  16.7321  16.7321
    17.1190  17.1190  17.2460  17.2460  17.4675  17.4675  17.6792  17.6792
    17.8384  17.8384

          k = 0.0000-0.5774 0.0000 (  9312 PWs)   bands (ev):

   -70.7779 -70.7546 -70.7434 -70.7362 -70.7316 -70.7116 -70.7115 -70.7010
   -40.8708 -40.8556 -40.8540 -40.8384 -37.0912 -37.0227 -37.0016 -36.9414
   -36.8730 -36.8694 -36.8570 -36.8255 -36.7908 -36.7859 -36.7794 -36.7664
   -36.7607 -36.7490 -36.7469 -36.7432 -36.7283 -36.7060 -36.6988 -36.6550
   -36.6410 -36.6368 -36.6331 -36.6267 -17.2012 -17.1960 -17.1801 -17.1772
   -17.1440 -17.0990 -17.0761 -17.0295 -16.9976 -16.9905 -16.9756 -16.9749
    10.4884  11.0680  12.0037  12.1875  12.3573  12.6457  12.8058  12.8817
    13.0158  13.1943  13.6154  13.6440  13.7024  13.8977  13.9564  13.9624
    13.9836  14.0235  14.1135  14.2820  14.3326  14.3861  14.3934  14.4020
    14.4410  14.4798  14.4989  14.5394  14.5443  14.5585  14.6857  14.7387
    14.7706  15.0589  15.7455  16.0489  16.0651  16.1139  16.1383  16.2115
    16.2464  16.2911  16.2983  16.5583  16.6417  16.8245  16.9081  16.9605
    17.0281  17.0560  17.1245  17.1513  17.4095  17.5351  17.5588  17.6650
    17.8506  18.2014

          k = 0.0000-0.5774 0.1545 (  9308 PWs)   bands (ev):

   -70.7754 -70.7592 -70.7433 -70.7410 -70.7222 -70.7116 -70.7115 -70.7037
   -40.8696 -40.8611 -40.8484 -40.8396 -37.0861 -37.0464 -36.9759 -36.9431
   -36.8759 -36.8533 -36.8524 -36.8296 -36.8202 -36.7979 -36.7842 -36.7660
   -36.7652 -36.7642 -36.7332 -36.7287 -36.7169 -36.6879 -36.6877 -36.6625
   -36.6493 -36.6349 -36.6345 -36.6332 -17.1969 -17.1938 -17.1826 -17.1789
   -17.1425 -17.1138 -17.0617 -17.0324 -16.9948 -16.9882 -16.9783 -16.9777
    10.6141  11.1512  11.5978  11.9792  12.6370  12.7181  12.7765  12.8887
    13.0936  13.2172  13.5342  13.5705  13.7387  13.9358  13.9518  13.9544
    13.9891  14.0761  14.0902  14.1131  14.2861  14.3743  14.3873  14.3912
    14.4341  14.4414  14.4899  14.4968  14.6555  14.6632  14.7531  14.7781
    15.0102  15.2156  15.7464  15.8835  15.9366  16.0097  16.0600  16.0970
    16.1921  16.2093  16.5401  16.6200  16.6944  16.7210  16.7750  16.8431
    16.8955  17.2287  17.2529  17.2615  17.3921  17.4710  17.8050  17.8199
    17.8229  18.1562

          k = 0.0000-0.5774-0.3091 (  9284 PWs)   bands (ev):

   -70.7683 -70.7683 -70.7427 -70.7427 -70.7115 -70.7115 -70.7113 -70.7113
   -40.8663 -40.8663 -40.8431 -40.8431 -37.0708 -37.0708 -36.9520 -36.9520
   -36.8585 -36.8585 -36.8408 -36.8408 -36.8270 -36.8270 -36.7782 -36.7782
   -36.7656 -36.7656 -36.7296 -36.7296 -36.6838 -36.6838 -36.6669 -36.6669
   -36.6575 -36.6575 -36.6334 -36.6334 -17.1883 -17.1883 -17.1870 -17.1870
   -17.1324 -17.1324 -17.0436 -17.0436 -16.9867 -16.9867 -16.9828 -16.9828
    10.9561  10.9561  11.5905  11.5905  12.7053  12.7053  12.9077  12.9077
    13.3057  13.3057  13.3467  13.3467  13.8700  13.8700  13.9289  13.9289
    13.9561  13.9561  14.2013  14.2013  14.3531  14.3531  14.3751  14.3751
    14.4059  14.4059  14.4796  14.4796  14.6453  14.6453  14.8354  14.8354
    15.5008  15.5008  15.5841  15.5841  15.8300  15.8300  15.9574  15.9574
    16.2196  16.2196  16.6235  16.6235  16.6582  16.6582  16.8159  16.8159
    16.9877  16.9877  17.3353  17.3353  17.6533  17.6533  17.6789  17.6789
    18.0423  18.0423

          k = 0.2500 0.4330 0.0000 (  9262 PWs)   bands (ev):

   -70.7779 -70.7546 -70.7433 -70.7362 -70.7316 -70.7115 -70.7115 -70.7010
   -40.8707 -40.8555 -40.8541 -40.8385 -37.0849 -37.0181 -37.0016 -36.9433
   -36.9079 -36.8670 -36.8605 -36.8152 -36.7917 -36.7909 -36.7711 -36.7657
   -36.7634 -36.7546 -36.7488 -36.7405 -36.7022 -36.6773 -36.6761 -36.6651
   -36.6597 -36.6500 -36.6440 -36.6270 -17.2030 -17.1956 -17.1858 -17.1784
   -17.1324 -17.0899 -17.0836 -17.0403 -16.9960 -16.9862 -16.9798 -16.9705
    10.2499  11.7592  11.8328  12.2977  12.3010  12.6062  12.6691  12.7888
    12.8109  13.1156  13.6485  13.7373  13.7592  13.7826  13.8530  13.8733
    13.8907  14.0285  14.2139  14.2242  14.2644  14.2791  14.4058  14.4384
    14.4687  14.4813  14.4969  14.5228  14.6317  14.7643  14.8878  14.9214
    15.0370  15.1529  15.6092  15.7824  15.8035  15.9618  16.0230  16.1212
    16.4490  16.4535  16.5090  16.5264  16.6807  16.7177  16.7436  17.1001
    17.1221  17.1311  17.2379  17.2661  17.2932  17.4085  17.7063  17.7796
    17.9368  17.9561

          k = 0.2500 0.4330 0.1545 (  9312 PWs)   bands (ev):

   -70.7754 -70.7593 -70.7433 -70.7410 -70.7222 -70.7116 -70.7115 -70.7037
   -40.8696 -40.8611 -40.8484 -40.8397 -37.0800 -37.0416 -36.9785 -36.9475
   -36.8984 -36.8590 -36.8556 -36.8246 -36.8170 -36.7983 -36.7855 -36.7820
   -36.7607 -36.7555 -36.7212 -36.7188 -36.6888 -36.6765 -36.6747 -36.6660
   -36.6591 -36.6558 -36.6496 -36.6348 -17.2006 -17.1919 -17.1884 -17.1786
   -17.1329 -17.1093 -17.0647 -17.0409 -16.9950 -16.9840 -16.9826 -16.9727
    10.3887  11.3465  11.9014  12.2292  12.4350  12.5821  12.7059  12.8120
    13.0148  13.1740  13.5291  13.5964  13.7532  13.8138  13.9061  13.9137
    13.9873  14.0127  14.0255  14.1056  14.2604  14.2745  14.3318  14.4006
    14.4424  14.4699  14.5454  14.6044  14.7356  14.9040  14.9109  15.0484
    15.1157  15.2248  15.6006  15.6662  15.7298  15.9158  16.0119  16.0423
    16.1947  16.3184  16.5654  16.6243  16.6641  16.7094  16.9063  17.0875
    17.0907  17.1707  17.1785  17.2376  17.3311  17.4638  17.6385  17.6590
    18.0060  18.1732

          k = 0.2500 0.4330-0.3091 (  9274 PWs)   bands (ev):

   -70.7683 -70.7683 -70.7428 -70.7428 -70.7115 -70.7115 -70.7113 -70.7113
   -40.8662 -40.8662 -40.8432 -40.8432 -37.0651 -37.0651 -36.9582 -36.9582
   -36.8677 -36.8677 -36.8466 -36.8466 -36.8217 -36.8217 -36.7864 -36.7864
   -36.7592 -36.7592 -36.7029 -36.7029 -36.6734 -36.6734 -36.6683 -36.6683
   -36.6620 -36.6620 -36.6521 -36.6521 -17.1947 -17.1947 -17.1834 -17.1834
   -17.1266 -17.1266 -17.0482 -17.0482 -16.9899 -16.9899 -16.9780 -16.9780
    10.7820  10.7820  12.0859  12.0859  12.4679  12.4679  12.8257  12.8257
    13.3187  13.3187  13.3526  13.3526  13.7942  13.7942  13.8875  13.8875
    13.9879  13.9879  14.0921  14.0921  14.2440  14.2440  14.3375  14.3375
    14.4242  14.4242  14.5812  14.5812  14.8417  14.8417  15.0909  15.0909
    15.3992  15.3992  15.5564  15.5564  15.6514  15.6514  15.9561  15.9561
    16.1721  16.1721  16.6270  16.6270  16.7085  16.7085  16.9573  16.9573
    17.1585  17.1585  17.2502  17.2502  17.3960  17.3960  17.6277  17.6277
    18.0483  18.0483

     the Fermi energy is    16.1483 ev

!    total energy              =   -3111.29213320 Ry
     estimated scf accuracy    <          4.5E-10 Ry
     smearing contrib. (-TS)   =       0.00042758 Ry
     internal energy E=F+TS    =   -3111.29256078 Ry

     The total energy is F=E-TS. E is the sum of the following terms:
     one-electron contribution =   -1208.21045129 Ry
     hartree contribution      =     698.16223484 Ry
     xc contribution           =    -349.39896145 Ry
     ewald contribution        =   -1642.60130586 Ry
     one-center paw contrib.   =    -609.24407702 Ry

     convergence has been achieved in  27 iterations

     negative rho (up, down):  3.720E-03 0.000E+00

     Forces acting on atoms (cartesian axes, Ry/au):

     atom    1 type  1   force =    -0.01488721    0.00859513    0.00000000
     atom    2 type  1   force =     0.01488721   -0.00859513    0.00000000
     atom    3 type  1   force =     0.00000000    0.01719027   -0.00000000
     atom    4 type  1   force =     0.01488721    0.00859513   -0.00000000
     atom    5 type  1   force =     0.00000000   -0.01719027    0.00000000
     atom    6 type  1   force =    -0.01488721   -0.00859513    0.00000000
     atom    7 type  1   force =     0.00000000    0.00000000    0.00000000
     atom    8 type  1   force =     0.00000000    0.00000000    0.00000000
     atom    9 type  2   force =    -0.00000000   -0.00000000   -0.01174540
     atom   10 type  2   force =     0.00000000    0.00000000   -0.01174540
     atom   11 type  2   force =    -0.00000000   -0.00000000    0.01174540
     atom   12 type  2   force =     0.00000000    0.00000000    0.01174540

     Total force =     0.048217     Total SCF correction =     0.000034


     Computing stress (Cartesian axis) and pressure


     negative rho (up, down):  3.720E-03 0.000E+00
          total   stress  (Ry/bohr**3)                   (kbar)     P=     -163.99
  -0.00119920   0.00000000   0.00000000         -176.41        0.00        0.00
   0.00000000  -0.00119920   0.00000000            0.00     -176.41        0.00
   0.00000000   0.00000000  -0.00094595            0.00        0.00     -139.15


     Writing all to output data dir ./FeAl.save/ :
     XML data file, charge density, pseudopotentials, collected wavefunctions

     init_run     :      2.82s CPU      2.92s WALL (       1 calls)
     electrons    :    119.62s CPU    122.75s WALL (       1 calls)
     forces       :      0.84s CPU      0.87s WALL (       1 calls)
     stress       :      4.09s CPU      4.18s WALL (       1 calls)

     Called by init_run:
     wfcinit      :      1.37s CPU      1.38s WALL (       1 calls)
     potinit      :      0.76s CPU      0.79s WALL (       1 calls)
     hinit0       :      0.37s CPU      0.38s WALL (       1 calls)

     Called by electrons:
     c_bands      :     86.35s CPU     87.03s WALL (      27 calls)
     sum_band     :     16.34s CPU     17.20s WALL (      27 calls)
     v_of_rho     :      1.49s CPU      1.56s WALL (      28 calls)
     newd         :      6.50s CPU      7.33s WALL (      28 calls)
     PAW_pot      :      9.23s CPU      9.82s WALL (      28 calls)
     mix_rho      :      0.16s CPU      0.17s WALL (      27 calls)

     Called by c_bands:
     init_us_2    :      0.55s CPU      0.55s WALL (     684 calls)
     cegterg      :     83.40s CPU     84.06s WALL (     324 calls)

     Called by *egterg:
     cdiaghg      :     15.75s CPU     15.81s WALL (    1333 calls)
     h_psi        :     45.19s CPU     45.71s WALL (    1345 calls)
     s_psi        :      3.99s CPU      4.00s WALL (    1345 calls)
     g_psi        :      0.21s CPU      0.21s WALL (    1009 calls)

     Called by h_psi:
     h_psi:calbec :      5.74s CPU      5.76s WALL (    1345 calls)
     vloc_psi     :     35.15s CPU     35.63s WALL (    1345 calls)
     add_vuspsi   :      4.15s CPU      4.17s WALL (    1345 calls)

     General routines
     calbec       :      9.11s CPU      9.15s WALL (    1873 calls)
     fft          :      1.28s CPU      1.39s WALL (     387 calls)
     ffts         :      0.38s CPU      0.39s WALL (      55 calls)
     fftw         :     34.05s CPU     34.50s WALL (  213140 calls)
     interpolate  :      0.45s CPU      0.46s WALL (      28 calls)

     Parallel routines

     PWSCF        :    127.66s CPU    133.42s WALL


   This run was terminated on:   2:23:40  27Oct2025            

=------------------------------------------------------------------------------=
   JOB DONE.
=------------------------------------------------------------------------------=
Note: The following floating-point exceptions are signalling: IEEE_UNDERFLOW_FLAG IEEE_DENORMAL
Note: The following floating-point exceptions are signalling: IEEE_UNDERFLOW_FLAG IEEE_DENORMAL
Note: The following floating-point exceptions are signalling: IEEE_UNDERFLOW_FLAG IEEE_DENORMAL
Note: The following floating-point exceptions are signalling: IEEE_UNDERFLOW_FLAG IEEE_DENORMAL
Note: The following floating-point exceptions are signalling: IEEE_UNDERFLOW_FLAG IEEE_DENORMAL
Note: The following floating-point exceptions are signalling: IEEE_UNDERFLOW_FLAG IEEE_DENORMAL
Note: The following floating-point exceptions are signalling: IEEE_UNDERFLOW_FLAG IEEE_DENORMAL
Note: The following floating-point exceptions are signalling: IEEE_UNDERFLOW_FLAG IEEE_DENORMAL
