
     Program PWSCF v.7.4 starts on 27Oct2025 at  2:43:53 

     This program is part of the open-source Quantum ESPRESSO suite
     for quantum simulation of materials; please cite
         "P. Giannozzi et al., J. Phys.:Condens. Matter 21 395502 (2009);
         "P. Giannozzi et al., J. Phys.:Condens. Matter 29 465901 (2017);
         "P. Giannozzi et al., J. Chem. Phys. 152 154105 (2020);
          URL http://www.quantum-espresso.org", 
     in publications or presentations arising from this work. More details at
     http://www.quantum-espresso.org/quote

     Parallel version (MPI & OpenMP), running on       8 processor cores
     Number of MPI processes:                 8
     Threads/MPI process:                     1

     MPI processes distributed on     1 nodes
     231467 MiB available memory on the printing compute node when the environment starts

     Reading input from TiFe2_kmesh_convergence/TiFe2_k999.in

     Current dimensions of program PWSCF are:
     Max number of different atomic species (ntypx) = 10
     Max number of k-points (npk) =  40000
     Max angular momentum in pseudopotentials (lmaxx) =  4
     file Fe.pbe-spn-kjpaw_psl.0.2.1.UPF: wavefunction(s)  3D renormalized

     IMPORTANT: XC functional enforced from input :
     Exchange-correlation= PBE
                           (   1   4   3   4   0   0   0)
     Any further DFT definition will be discarded
     Please, verify this is what you really want

     Message from routine setup:
     using ibrav=0 with symmetry is DISCOURAGED, use correct ibrav instead

     R & G space division:  proc/nbgrp/npool/nimage =       8
     Subspace diagonalization in iterative solution of the eigenvalue problem:
     a serial algorithm will be used


     Parallelization info
     --------------------
     sticks:   dense  smooth     PW     G-vecs:    dense   smooth      PW
     Min         563     185     52                49655     9309    1394
     Max         564     186     53                49666     9318    1399
     Sum        4507    1483    421               397277    74505   11177

     Using Slab Decomposition



     bravais-lattice index     =            0
     lattice parameter (alat)  =       9.1568  a.u.
     unit-cell volume          =    1075.5644 (a.u.)^3
     number of atoms/cell      =           12
     number of atomic types    =            2
     number of electrons       =       176.00
     number of Kohn-Sham states=          106
     kinetic-energy cutoff     =      64.0000  Ry
     charge density cutoff     =     782.0000  Ry
     scf convergence threshold =      1.0E-08
     mixing beta               =       0.7000
     number of iterations used =            8  plain     mixing
     Exchange-correlation= PBE
                           (   1   4   3   4   0   0   0)

     celldm(1)=   9.156781  celldm(2)=   0.000000  celldm(3)=   0.000000
     celldm(4)=   0.000000  celldm(5)=   0.000000  celldm(6)=   0.000000

     crystal axes: (cart. coord. in units of alat)
               a(1) = (   1.000000   0.000000   0.000000 )  
               a(2) = (  -0.500000   0.866025   0.000000 )  
               a(3) = (   0.000000   0.000000   1.617623 )  

     reciprocal axes: (cart. coord. in units 2 pi/alat)
               b(1) = (  1.000000  0.577350 -0.000000 )  
               b(2) = (  0.000000  1.154701  0.000000 )  
               b(3) = (  0.000000 -0.000000  0.618191 )  


     PseudoPot. # 1 for Fe read from file:
     ./Fe.pbe-spn-kjpaw_psl.0.2.1.UPF
     MD5 check sum: e86618425769142926afa95317d90200
     Pseudo is Projector augmented-wave + core cor, Zval = 16.0
     Generated using "atomic" code by A. Dal Corso  v.5.0.99 svn rev. 10869
     Shape of augmentation charge: PSQ
     Using radial grid of 1191 points,  6 beta functions with: 
                l(1) =   0
                l(2) =   0
                l(3) =   1
                l(4) =   1
                l(5) =   2
                l(6) =   2
     Q(r) pseudized with 0 coefficients 


     PseudoPot. # 2 for Ti read from file:
     ./Ti_pbe_v1.4.uspp.F.UPF
     MD5 check sum: 88a00a6731bd790ddea75d31a80cb452
     Pseudo is Ultrasoft + core correction, Zval = 12.0
     Generated by new atomic code, or converted to UPF format
     Using radial grid of  851 points,  6 beta functions with: 
                l(1) =   0
                l(2) =   0
                l(3) =   1
                l(4) =   1
                l(5) =   2
                l(6) =   2
     Q(r) pseudized with  6 coefficients,  rinner =    1.000   1.000   1.000
                                                       1.000   1.000

     atomic species   valence    mass     pseudopotential
     Fe               16.00    55.84500     Fe( 1.00)
     Ti               12.00    47.86700     Ti( 1.00)

     24 Sym. Ops., with inversion, found (12 have fractional translation)



   Cartesian axes

     site n.     atom                  positions (alat units)
         1        Fe     tau(   1) = (   0.7465670   0.1463196   0.4044057  )
         2        Fe     tau(   2) = (  -0.2465670   0.7197058   1.2132171  )
         3        Fe     tau(   3) = (  -0.0000000   0.2926392   1.2132171  )
         4        Fe     tau(   4) = (   0.2534330   0.1463196   0.4044057  )
         5        Fe     tau(   5) = (   0.5000000   0.5733862   0.4044057  )
         6        Fe     tau(   6) = (   0.2465670   0.7197058   1.2132171  )
         7        Fe     tau(   7) = (   0.0000000   0.0000000   0.0000000  )
         8        Fe     tau(   8) = (   0.0000000   0.0000000   0.8088114  )
         9        Ti     tau(   9) = (   0.5000000   0.2886751   1.5200090  )
        10        Ti     tau(  10) = (  -0.0000000   0.5773503   0.7111976  )
        11        Ti     tau(  11) = (  -0.0000000   0.5773503   0.0976138  )
        12        Ti     tau(  12) = (   0.5000000   0.2886751   0.9064252  )

     number of k points=    60  Marzari-Vanderbilt smearing, width (Ry)=  0.0050
                       cart. coord. in units 2pi/alat
        k(    1) = (   0.0000000   0.0000000   0.0000000), wk =   0.0027435
        k(    2) = (   0.0000000   0.0000000   0.0686879), wk =   0.0054870
        k(    3) = (   0.0000000   0.0000000   0.1373758), wk =   0.0054870
        k(    4) = (   0.0000000   0.0000000   0.2060637), wk =   0.0054870
        k(    5) = (   0.0000000   0.0000000   0.2747516), wk =   0.0054870
        k(    6) = (   0.0000000   0.1283001   0.0000000), wk =   0.0164609
        k(    7) = (   0.0000000   0.1283001   0.0686879), wk =   0.0329218
        k(    8) = (   0.0000000   0.1283001   0.1373758), wk =   0.0329218
        k(    9) = (   0.0000000   0.1283001   0.2060637), wk =   0.0329218
        k(   10) = (   0.0000000   0.1283001   0.2747516), wk =   0.0329218
        k(   11) = (   0.0000000   0.2566001   0.0000000), wk =   0.0164609
        k(   12) = (   0.0000000   0.2566001   0.0686879), wk =   0.0329218
        k(   13) = (   0.0000000   0.2566001   0.1373758), wk =   0.0329218
        k(   14) = (   0.0000000   0.2566001   0.2060637), wk =   0.0329218
        k(   15) = (   0.0000000   0.2566001   0.2747516), wk =   0.0329218
        k(   16) = (   0.0000000   0.3849002   0.0000000), wk =   0.0164609
        k(   17) = (   0.0000000   0.3849002   0.0686879), wk =   0.0329218
        k(   18) = (   0.0000000   0.3849002   0.1373758), wk =   0.0329218
        k(   19) = (   0.0000000   0.3849002   0.2060637), wk =   0.0329218
        k(   20) = (   0.0000000   0.3849002   0.2747516), wk =   0.0329218
        k(   21) = (   0.0000000   0.5132002   0.0000000), wk =   0.0164609
        k(   22) = (   0.0000000   0.5132002   0.0686879), wk =   0.0329218
        k(   23) = (   0.0000000   0.5132002   0.1373758), wk =   0.0329218
        k(   24) = (   0.0000000   0.5132002   0.2060637), wk =   0.0329218
        k(   25) = (   0.0000000   0.5132002   0.2747516), wk =   0.0329218
        k(   26) = (   0.1111111   0.1924501   0.0000000), wk =   0.0164609
        k(   27) = (   0.1111111   0.1924501   0.0686879), wk =   0.0329218
        k(   28) = (   0.1111111   0.1924501   0.1373758), wk =   0.0329218
        k(   29) = (   0.1111111   0.1924501   0.2060637), wk =   0.0329218
        k(   30) = (   0.1111111   0.1924501   0.2747516), wk =   0.0329218
        k(   31) = (   0.1111111   0.3207501   0.0000000), wk =   0.0329218
        k(   32) = (   0.1111111   0.3207501   0.0686879), wk =   0.0658436
        k(   33) = (   0.1111111   0.3207501   0.1373758), wk =   0.0658436
        k(   34) = (   0.1111111   0.3207501   0.2060637), wk =   0.0658436
        k(   35) = (   0.1111111   0.3207501   0.2747516), wk =   0.0658436
        k(   36) = (   0.1111111   0.4490502   0.0000000), wk =   0.0329218
        k(   37) = (   0.1111111   0.4490502   0.0686879), wk =   0.0658436
        k(   38) = (   0.1111111   0.4490502   0.1373758), wk =   0.0658436
        k(   39) = (   0.1111111   0.4490502   0.2060637), wk =   0.0658436
        k(   40) = (   0.1111111   0.4490502   0.2747516), wk =   0.0658436
        k(   41) = (   0.1111111   0.5773503   0.0000000), wk =   0.0164609
        k(   42) = (   0.1111111   0.5773503   0.0686879), wk =   0.0329218
        k(   43) = (   0.1111111   0.5773503   0.1373758), wk =   0.0329218
        k(   44) = (   0.1111111   0.5773503   0.2060637), wk =   0.0329218
        k(   45) = (   0.1111111   0.5773503   0.2747516), wk =   0.0329218
        k(   46) = (   0.2222222   0.3849002   0.0000000), wk =   0.0164609
        k(   47) = (   0.2222222   0.3849002   0.0686879), wk =   0.0329218
        k(   48) = (   0.2222222   0.3849002   0.1373758), wk =   0.0329218
        k(   49) = (   0.2222222   0.3849002   0.2060637), wk =   0.0329218
        k(   50) = (   0.2222222   0.3849002   0.2747516), wk =   0.0329218
        k(   51) = (   0.2222222   0.5132002   0.0000000), wk =   0.0329218
        k(   52) = (   0.2222222   0.5132002   0.0686879), wk =   0.0658436
        k(   53) = (   0.2222222   0.5132002   0.1373758), wk =   0.0658436
        k(   54) = (   0.2222222   0.5132002   0.2060637), wk =   0.0658436
        k(   55) = (   0.2222222   0.5132002   0.2747516), wk =   0.0658436
        k(   56) = (   0.3333333   0.5773503   0.0000000), wk =   0.0054870
        k(   57) = (   0.3333333   0.5773503   0.0686879), wk =   0.0109739
        k(   58) = (   0.3333333   0.5773503   0.1373758), wk =   0.0109739
        k(   59) = (   0.3333333   0.5773503   0.2060637), wk =   0.0109739
        k(   60) = (   0.3333333   0.5773503   0.2747516), wk =   0.0109739

     Dense  grid:   397277 G-vectors     FFT dimensions: (  81,  81, 144)

     Smooth grid:    74505 G-vectors     FFT dimensions: (  48,  48,  80)

     Estimated max dynamical RAM per process >     310.97 MB

     Estimated total dynamical RAM >       2.43 GB

     Check: negative core charge=   -0.000017

     Initial potential from superposition of free atoms

     starting charge     171.9963, renormalised to     176.0000

     negative rho (up, down):  6.092E-03 0.000E+00
     Starting wfcs are  144 randomized atomic wfcs
     Checking if some PAW data can be deallocated... 

     total cpu time spent up to now is        8.6 secs

     per-process dynamical memory:   264.3 Mb

     Self-consistent Calculation

     iteration #  1     ecut=    64.00 Ry     beta= 0.70
     Davidson diagonalization with overlap
     ethr =  1.00E-02,  avg # of iterations =  2.0

     negative rho (up, down):  2.162E-04 0.000E+00

     total cpu time spent up to now is       25.7 secs

     total energy              =   -3017.01647783 Ry
     estimated scf accuracy    <     116.52046762 Ry

     iteration #  2     ecut=    64.00 Ry     beta= 0.70
     Davidson diagonalization with overlap
     ethr =  1.00E-02,  avg # of iterations =  6.6

     total cpu time spent up to now is       60.6 secs

     total energy              =   -3075.97334991 Ry
     estimated scf accuracy    <     699.04857925 Ry

     iteration #  3     ecut=    64.00 Ry     beta= 0.70
     Davidson diagonalization with overlap
     ethr =  1.00E-02,  avg # of iterations =  5.1

     total cpu time spent up to now is       87.6 secs

     total energy              =   -3120.88575503 Ry
     estimated scf accuracy    <      91.89003423 Ry

     iteration #  4     ecut=    64.00 Ry     beta= 0.70
     Davidson diagonalization with overlap
     ethr =  1.00E-02,  avg # of iterations =  1.4

     negative rho (up, down):  2.075E-06 0.000E+00

     total cpu time spent up to now is      101.5 secs

     total energy              =   -3116.53694906 Ry
     estimated scf accuracy    <      54.53891675 Ry

     iteration #  5     ecut=    64.00 Ry     beta= 0.70
     Davidson diagonalization with overlap
     ethr =  1.00E-02,  avg # of iterations =  1.6

     negative rho (up, down):  1.071E-04 0.000E+00

     total cpu time spent up to now is      115.7 secs

     total energy              =   -3115.14546719 Ry
     estimated scf accuracy    <      42.20326292 Ry

     iteration #  6     ecut=    64.00 Ry     beta= 0.70
     Davidson diagonalization with overlap
     ethr =  1.00E-02,  avg # of iterations =  1.0

     negative rho (up, down):  4.200E-04 0.000E+00

     total cpu time spent up to now is      129.0 secs

     total energy              =   -3113.56110761 Ry
     estimated scf accuracy    <      26.22786442 Ry

     iteration #  7     ecut=    64.00 Ry     beta= 0.70
     Davidson diagonalization with overlap
     ethr =  1.00E-02,  avg # of iterations =  1.0

     negative rho (up, down):  9.983E-04 0.000E+00

     total cpu time spent up to now is      142.3 secs

     total energy              =   -3111.30224676 Ry
     estimated scf accuracy    <      18.09725508 Ry

     iteration #  8     ecut=    64.00 Ry     beta= 0.70
     Davidson diagonalization with overlap
     ethr =  1.00E-02,  avg # of iterations =  1.0

     negative rho (up, down):  1.381E-03 0.000E+00

     total cpu time spent up to now is      155.7 secs

     total energy              =   -3111.47247966 Ry
     estimated scf accuracy    <       6.24001075 Ry

     iteration #  9     ecut=    64.00 Ry     beta= 0.70
     Davidson diagonalization with overlap
     ethr =  3.55E-03,  avg # of iterations =  1.6

     negative rho (up, down):  2.490E-03 0.000E+00

     total cpu time spent up to now is      170.0 secs

     total energy              =   -3111.08292952 Ry
     estimated scf accuracy    <       4.70379699 Ry

     iteration # 10     ecut=    64.00 Ry     beta= 0.70
     Davidson diagonalization with overlap
     ethr =  2.67E-03,  avg # of iterations =  2.4

     negative rho (up, down):  5.318E-03 0.000E+00

     total cpu time spent up to now is      185.2 secs

     total energy              =   -3110.95249020 Ry
     estimated scf accuracy    <       0.94358937 Ry

     iteration # 11     ecut=    64.00 Ry     beta= 0.70
     Davidson diagonalization with overlap
     ethr =  5.36E-04,  avg # of iterations =  6.0

     negative rho (up, down):  4.052E-03 0.000E+00

     total cpu time spent up to now is      211.9 secs

     total energy              =   -3111.24480816 Ry
     estimated scf accuracy    <       7.06018532 Ry

     iteration # 12     ecut=    64.00 Ry     beta= 0.70
     Davidson diagonalization with overlap
     ethr =  5.36E-04,  avg # of iterations =  1.3

     negative rho (up, down):  1.954E-03 0.000E+00

     total cpu time spent up to now is      225.8 secs

     total energy              =   -3111.02033306 Ry
     estimated scf accuracy    <       1.59319264 Ry

     iteration # 13     ecut=    64.00 Ry     beta= 0.70
     Davidson diagonalization with overlap
     ethr =  5.36E-04,  avg # of iterations =  5.1

     negative rho (up, down):  2.880E-03 0.000E+00

     total cpu time spent up to now is      246.5 secs

     total energy              =   -3111.31426144 Ry
     estimated scf accuracy    <       1.84153455 Ry

     iteration # 14     ecut=    64.00 Ry     beta= 0.70
     Davidson diagonalization with overlap
     ethr =  5.36E-04,  avg # of iterations =  1.2

     negative rho (up, down):  3.414E-03 0.000E+00

     total cpu time spent up to now is      260.0 secs

     total energy              =   -3111.27199994 Ry
     estimated scf accuracy    <       0.73962757 Ry

     iteration # 15     ecut=    64.00 Ry     beta= 0.70
     Davidson diagonalization with overlap
     ethr =  4.20E-04,  avg # of iterations =  1.3

     negative rho (up, down):  3.493E-03 0.000E+00

     total cpu time spent up to now is      273.7 secs

     total energy              =   -3111.29165736 Ry
     estimated scf accuracy    <       0.07263991 Ry

     iteration # 16     ecut=    64.00 Ry     beta= 0.70
     Davidson diagonalization with overlap
     ethr =  4.13E-05,  avg # of iterations =  4.7

     negative rho (up, down):  3.493E-03 0.000E+00

     total cpu time spent up to now is      291.0 secs

     total energy              =   -3111.29531468 Ry
     estimated scf accuracy    <       0.02917391 Ry

     iteration # 17     ecut=    64.00 Ry     beta= 0.70
     Davidson diagonalization with overlap
     ethr =  1.66E-05,  avg # of iterations =  2.6

     negative rho (up, down):  3.613E-03 0.000E+00

     total cpu time spent up to now is      305.9 secs

     total energy              =   -3111.29308614 Ry
     estimated scf accuracy    <       0.04139516 Ry

     iteration # 18     ecut=    64.00 Ry     beta= 0.70
     Davidson diagonalization with overlap
     ethr =  1.66E-05,  avg # of iterations =  1.8

     negative rho (up, down):  3.697E-03 0.000E+00

     total cpu time spent up to now is      320.4 secs

     total energy              =   -3111.29304022 Ry
     estimated scf accuracy    <       0.01108840 Ry

     iteration # 19     ecut=    64.00 Ry     beta= 0.70
     Davidson diagonalization with overlap
     ethr =  6.30E-06,  avg # of iterations =  5.9

     negative rho (up, down):  3.712E-03 0.000E+00

     total cpu time spent up to now is      338.9 secs

     total energy              =   -3111.29378412 Ry
     estimated scf accuracy    <       0.00044446 Ry

     iteration # 20     ecut=    64.00 Ry     beta= 0.70
     Davidson diagonalization with overlap
     ethr =  2.53E-07,  avg # of iterations =  5.4

     negative rho (up, down):  3.718E-03 0.000E+00

     total cpu time spent up to now is      362.4 secs

     total energy              =   -3111.29401632 Ry
     estimated scf accuracy    <       0.00001228 Ry

     iteration # 21     ecut=    64.00 Ry     beta= 0.70
     Davidson diagonalization with overlap
     ethr =  6.98E-09,  avg # of iterations =  6.0

     negative rho (up, down):  3.729E-03 0.000E+00

     total cpu time spent up to now is      389.9 secs

     total energy              =   -3111.29403400 Ry
     estimated scf accuracy    <       0.00004264 Ry

     iteration # 22     ecut=    64.00 Ry     beta= 0.70
     Davidson diagonalization with overlap
     ethr =  6.98E-09,  avg # of iterations =  4.8

     negative rho (up, down):  3.735E-03 0.000E+00

     total cpu time spent up to now is      410.9 secs

     total energy              =   -3111.29405113 Ry
     estimated scf accuracy    <       0.00027129 Ry

     iteration # 23     ecut=    64.00 Ry     beta= 0.70
     Davidson diagonalization with overlap
     ethr =  6.98E-09,  avg # of iterations =  2.2

     negative rho (up, down):  3.738E-03 0.000E+00

     total cpu time spent up to now is      426.3 secs

     total energy              =   -3111.29406276 Ry
     estimated scf accuracy    <       0.00043952 Ry

     iteration # 24     ecut=    64.00 Ry     beta= 0.70
     Davidson diagonalization with overlap
     ethr =  6.98E-09,  avg # of iterations =  2.8

     negative rho (up, down):  3.734E-03 0.000E+00

     total cpu time spent up to now is      442.3 secs

     total energy              =   -3111.29405165 Ry
     estimated scf accuracy    <       0.00062034 Ry

     iteration # 25     ecut=    64.00 Ry     beta= 0.70
     Davidson diagonalization with overlap
     ethr =  6.98E-09,  avg # of iterations =  1.2

     negative rho (up, down):  3.728E-03 0.000E+00

     total cpu time spent up to now is      456.0 secs

     total energy              =   -3111.29402847 Ry
     estimated scf accuracy    <       0.00047153 Ry

     iteration # 26     ecut=    64.00 Ry     beta= 0.70
     Davidson diagonalization with overlap
     ethr =  6.98E-09,  avg # of iterations =  3.8

     negative rho (up, down):  3.725E-03 0.000E+00

     total cpu time spent up to now is      474.6 secs

     total energy              =   -3111.29402320 Ry
     estimated scf accuracy    <       0.00019980 Ry

     iteration # 27     ecut=    64.00 Ry     beta= 0.70
     Davidson diagonalization with overlap
     ethr =  6.98E-09,  avg # of iterations =  3.9

     negative rho (up, down):  3.722E-03 0.000E+00

     total cpu time spent up to now is      491.8 secs

     total energy              =   -3111.29402137 Ry
     estimated scf accuracy    <       0.00005942 Ry

     iteration # 28     ecut=    64.00 Ry     beta= 0.70
     Davidson diagonalization with overlap
     ethr =  6.98E-09,  avg # of iterations =  2.9

     negative rho (up, down):  3.719E-03 0.000E+00

     total cpu time spent up to now is      508.0 secs

     total energy              =   -3111.29402073 Ry
     estimated scf accuracy    <       0.00001528 Ry

     iteration # 29     ecut=    64.00 Ry     beta= 0.70
     Davidson diagonalization with overlap
     ethr =  6.98E-09,  avg # of iterations =  3.6

     negative rho (up, down):  3.719E-03 0.000E+00

     total cpu time spent up to now is      524.8 secs

     total energy              =   -3111.29402213 Ry
     estimated scf accuracy    <       0.00000005 Ry

     iteration # 30     ecut=    64.00 Ry     beta= 0.70
     Davidson diagonalization with overlap
     ethr =  3.05E-11,  avg # of iterations =  6.8

     negative rho (up, down):  3.719E-03 0.000E+00

     total cpu time spent up to now is      555.6 secs

     total energy              =   -3111.29402236 Ry
     estimated scf accuracy    <       0.00000051 Ry

     iteration # 31     ecut=    64.00 Ry     beta= 0.70
     Davidson diagonalization with overlap
     ethr =  3.05E-11,  avg # of iterations =  1.7

     negative rho (up, down):  3.720E-03 0.000E+00

     total cpu time spent up to now is      570.0 secs

     total energy              =   -3111.29402233 Ry
     estimated scf accuracy    <       0.00000021 Ry

     iteration # 32     ecut=    64.00 Ry     beta= 0.70
     Davidson diagonalization with overlap
     ethr =  3.05E-11,  avg # of iterations =  4.0

     negative rho (up, down):  3.720E-03 0.000E+00

     total cpu time spent up to now is      588.8 secs

     End of self-consistent calculation

          k = 0.0000 0.0000 0.0000 (  9343 PWs)   bands (ev):

   -70.7879 -70.7652 -70.7297 -70.7069 -70.7022 -70.7022 -70.7021 -70.7021
   -40.8794 -40.8652 -40.8299 -40.8146 -37.1889 -37.1188 -37.0066 -36.8888
   -36.8888 -36.8691 -36.8691 -36.8510 -36.8510 -36.7898 -36.7848 -36.7380
   -36.7380 -36.7367 -36.7367 -36.6388 -36.6388 -36.6383 -36.6350 -36.6350
   -36.6294 -36.6294 -36.6162 -36.6160 -17.1710 -17.1710 -17.1569 -17.1569
   -17.1559 -17.1542 -17.0153 -17.0122 -16.9976 -16.9976 -16.9830 -16.9830
     8.6207  10.6517  11.4297  12.0178  12.5092  12.6078  12.7688  12.7688
    12.9907  12.9907  13.2014  13.2957  13.3869  13.3869  13.8289  13.8289
    13.9683  13.9683  14.2108  14.2967  14.2967  14.3226  14.3226  14.7797
    14.7797  14.9139  15.3978  15.3978  15.5168  15.5168  15.8287  15.9136
    15.9136  15.9141  15.9141  16.0630  16.0630  16.0736  16.0739  16.1352
    16.1621  16.1621  16.2359  16.2782  16.2782  16.7325  16.7325  16.7576
    16.9922  16.9922  17.2890  17.2890  17.4926  17.4926  17.5114  17.5117
    17.7883  17.7883

          k = 0.0000 0.0000 0.0687 (  9313 PWs)   bands (ev):

   -70.7874 -70.7663 -70.7286 -70.7073 -70.7021 -70.7021 -70.7021 -70.7021
   -40.8791 -40.8658 -40.8293 -40.8149 -37.1872 -37.1229 -37.0001 -36.8885
   -36.8885 -36.8711 -36.8711 -36.8471 -36.8471 -36.8165 -36.7591 -36.7540
   -36.7540 -36.7208 -36.7208 -36.6414 -36.6414 -36.6404 -36.6337 -36.6337
   -36.6298 -36.6298 -36.6161 -36.6161 -17.1706 -17.1706 -17.1574 -17.1574
   -17.1557 -17.1542 -17.0153 -17.0124 -16.9972 -16.9972 -16.9834 -16.9834
     8.6550  10.4682  11.5888  12.0182  12.4388  12.7170  12.7748  12.7748
    12.9825  12.9825  13.1124  13.3628  13.3991  13.3991  13.8203  13.8203
    13.9577  13.9577  14.2231  14.2231  14.2401  14.4112  14.4112  14.8061
    14.8061  14.9295  15.3636  15.3636  15.4709  15.4709  15.7682  15.9201
    15.9201  15.9604  15.9726  15.9726  16.0575  16.0575  16.0758  16.1333
    16.1622  16.1622  16.2485  16.2485  16.3133  16.7668  16.7668  16.8608
    16.9891  16.9891  17.2858  17.2858  17.4919  17.4919  17.5114  17.5117
    17.7810  17.7810

          k = 0.0000 0.0000 0.1374 (  9266 PWs)   bands (ev):

   -70.7859 -70.7691 -70.7257 -70.7087 -70.7021 -70.7021 -70.7021 -70.7021
   -40.8781 -40.8675 -40.8275 -40.8160 -37.1832 -37.1326 -36.9836 -36.8876
   -36.8876 -36.8750 -36.8750 -36.8467 -36.8389 -36.8389 -36.7705 -36.7705
   -36.7328 -36.7048 -36.7048 -36.6470 -36.6470 -36.6465 -36.6320 -36.6320
   -36.6297 -36.6297 -36.6160 -36.6159 -17.1694 -17.1694 -17.1587 -17.1587
   -17.1553 -17.1540 -17.0153 -17.0130 -16.9958 -16.9958 -16.9846 -16.9846
     8.7570  10.1238  11.8390  12.0190  12.3973  12.7921  12.7921  12.8854
    12.9600  12.9600  12.9861  13.4182  13.4337  13.4337  13.7834  13.7834
    13.9474  13.9474  14.1504  14.1504  14.3345  14.5275  14.5275  14.8722
    14.8722  14.9752  15.2731  15.2731  15.3795  15.3795  15.6369  15.7396
    15.9368  15.9368  16.0377  16.0377  16.0761  16.0761  16.0810  16.1280
    16.1843  16.1843  16.1921  16.1921  16.4439  16.8326  16.8326  16.9749
    16.9749  17.1150  17.2731  17.2731  17.5042  17.5042  17.5115  17.5117
    17.7586  17.7586

          k = 0.0000 0.0000 0.2061 (  9296 PWs)   bands (ev):

   -70.7836 -70.7728 -70.7220 -70.7111 -70.7021 -70.7021 -70.7021 -70.7021
   -40.8766 -40.8697 -40.8251 -40.8177 -37.1767 -37.1449 -36.9615 -36.8863
   -36.8863 -36.8789 -36.8789 -36.8770 -36.8284 -36.8284 -36.7867 -36.7867
   -36.7091 -36.6900 -36.6900 -36.6568 -36.6548 -36.6548 -36.6311 -36.6311
   -36.6299 -36.6299 -36.6161 -36.6160 -17.1676 -17.1676 -17.1607 -17.1607
   -17.1548 -17.1539 -17.0152 -17.0137 -16.9938 -16.9938 -16.9865 -16.9865
     8.9245   9.7665  11.9846  12.0204  12.4604  12.8192  12.8192  12.8611
    12.9277  12.9277  13.0614  13.4133  13.4871  13.4871  13.7148  13.7148
    13.9599  13.9599  14.0879  14.0879  14.5057  14.6590  14.6590  14.9453
    14.9453  15.0354  15.1596  15.1596  15.2839  15.2839  15.4737  15.4946
    15.9599  15.9599  16.0253  16.0253  16.0831  16.0831  16.0891  16.1197
    16.1214  16.1214  16.3314  16.3314  16.6180  16.8059  16.8059  17.0158
    17.0158  17.2430  17.2430  17.4115  17.5115  17.5117  17.5456  17.5456
    17.5649  17.7208

          k = 0.0000 0.0000 0.2748 (  9344 PWs)   bands (ev):

   -70.7805 -70.7768 -70.7180 -70.7143 -70.7022 -70.7022 -70.7022 -70.7022
   -40.8746 -40.8722 -40.8224 -40.8199 -37.1681 -37.1572 -36.9353 -36.9067
   -36.8847 -36.8847 -36.8821 -36.8821 -36.8161 -36.8161 -36.8021 -36.8021
   -36.6884 -36.6766 -36.6766 -36.6709 -36.6648 -36.6648 -36.6306 -36.6306
   -36.6303 -36.6303 -36.6162 -36.6160 -17.1654 -17.1654 -17.1630 -17.1630
   -17.1543 -17.1540 -17.0150 -17.0144 -16.9913 -16.9913 -16.9888 -16.9888
     9.1533   9.4373  12.0202  12.0224  12.5973  12.7348  12.8531  12.8531
    12.8906  12.8906  13.2213  13.3442  13.5553  13.5553  13.6339  13.6339
    13.9911  13.9911  14.0346  14.0346  14.7483  14.8000  14.8000  14.9287
    14.9287  14.9943  15.1231  15.1231  15.1941  15.1941  15.3042  15.3680
    15.9872  15.9872  16.0111  16.0111  16.0685  16.0685  16.0794  16.0794
    16.0991  16.1097  16.5065  16.5065  16.6746  16.6746  16.8521  17.1074
    17.1074  17.1480  17.1880  17.1880  17.5116  17.5116  17.6063  17.6063
    17.6685  17.6685

          k = 0.0000 0.1283 0.0000 (  9298 PWs)   bands (ev):

   -70.7863 -70.7635 -70.7297 -70.7114 -70.7038 -70.7022 -70.7021 -70.6991
   -40.8782 -40.8639 -40.8313 -40.8159 -37.1788 -37.1089 -37.0051 -36.8882
   -36.8825 -36.8715 -36.8620 -36.8526 -36.8508 -36.7864 -36.7847 -36.7401
   -36.7382 -36.7379 -36.7366 -36.6463 -36.6419 -36.6399 -36.6367 -36.6355
   -36.6350 -36.6326 -36.6198 -36.6193 -17.1802 -17.1731 -17.1588 -17.1560
   -17.1550 -17.1429 -17.0235 -17.0103 -17.0001 -16.9957 -16.9810 -16.9787
     8.7400  10.7436  11.5105  12.0716  12.5287  12.6101  12.7623  12.7865
    12.9178  13.0669  13.1914  13.3794  13.3892  13.4111  13.8097  13.8532
    13.9716  14.0153  14.2515  14.2759  14.3017  14.3224  14.3311  14.7116
    14.7505  14.8146  15.2094  15.3490  15.3601  15.3670  15.6677  15.7537
    15.8705  15.8757  15.9251  15.9643  15.9951  16.0357  16.0997  16.2143
    16.2293  16.2425  16.2929  16.3823  16.4728  16.4932  16.8074  16.8774
    16.9205  16.9986  17.2954  17.3859  17.4267  17.4677  17.5064  17.5683
    17.5715  17.8386

          k = 0.0000 0.1283 0.0687 (  9310 PWs)   bands (ev):

   -70.7858 -70.7646 -70.7286 -70.7117 -70.7038 -70.7022 -70.7021 -70.6994
   -40.8778 -40.8645 -40.8306 -40.8163 -37.1776 -37.1132 -36.9989 -36.8879
   -36.8823 -36.8741 -36.8649 -36.8491 -36.8465 -36.8137 -36.7587 -36.7556
   -36.7539 -36.7228 -36.7210 -36.6474 -36.6437 -36.6410 -36.6372 -36.6361
   -36.6345 -36.6326 -36.6198 -36.6194 -17.1797 -17.1727 -17.1593 -17.1582
   -17.1530 -17.1430 -17.0233 -17.0112 -16.9990 -16.9952 -16.9814 -16.9792
     8.7739  10.5634  11.6661  12.0719  12.4616  12.6809  12.7937  12.7974
    12.9059  13.0560  13.1570  13.3695  13.4241  13.4289  13.8060  13.8465
    13.9563  14.0010  14.1987  14.2402  14.2744  14.3987  14.4284  14.7395
    14.7756  14.8299  15.1962  15.3144  15.3390  15.3416  15.7005  15.7057
    15.8029  15.8706  15.9259  15.9697  16.0188  16.0242  16.1013  16.1962
    16.2192  16.2271  16.3265  16.3780  16.3834  16.6389  16.8229  16.9114
    16.9278  17.0025  17.2939  17.3957  17.4155  17.4821  17.5107  17.5614
    17.5662  17.8292

          k = 0.0000 0.1283 0.1374 (  9301 PWs)   bands (ev):

   -70.7843 -70.7675 -70.7260 -70.7124 -70.7036 -70.7021 -70.7021 -70.7001
   -40.8769 -40.8662 -40.8289 -40.8173 -37.1736 -37.1233 -36.9827 -36.8870
   -36.8816 -36.8795 -36.8693 -36.8423 -36.8403 -36.8379 -36.7724 -36.7703
   -36.7330 -36.7074 -36.7052 -36.6510 -36.6487 -36.6461 -36.6376 -36.6368
   -36.6337 -36.6326 -36.6197 -36.6194 -17.1780 -17.1715 -17.1613 -17.1606
   -17.1509 -17.1434 -17.0227 -17.0133 -16.9963 -16.9938 -16.9826 -16.9807
     8.8748  10.2245  11.9112  12.0730  12.4178  12.7324  12.8149  12.8486
    12.9418  13.0264  13.0814  13.3920  13.4607  13.4608  13.7772  13.8148
    13.9402  13.9811  14.1289  14.1673  14.3487  14.5250  14.5445  14.8102
    14.8364  14.8730  15.1553  15.2412  15.2774  15.2803  15.5750  15.6499
    15.7666  15.8680  15.9301  15.9680  15.9846  16.0920  16.0939  16.1509
    16.1821  16.2304  16.3068  16.4100  16.4125  16.7778  16.8232  16.9110
    16.9687  17.0940  17.2852  17.4236  17.4250  17.5036  17.5268  17.5455
    17.5521  17.8014

          k = 0.0000 0.1283 0.2061 (  9321 PWs)   bands (ev):

   -70.7820 -70.7712 -70.7225 -70.7139 -70.7033 -70.7022 -70.7022 -70.7010
   -40.8754 -40.8685 -40.8264 -40.8190 -37.1673 -37.1357 -36.9607 -36.8894
   -36.8850 -36.8804 -36.8732 -36.8660 -36.8301 -36.8274 -36.7885 -36.7863
   -36.7102 -36.6936 -36.6906 -36.6570 -36.6561 -36.6551 -36.6378 -36.6373
   -36.6333 -36.6327 -36.6197 -36.6195 -17.1754 -17.1697 -17.1648 -17.1626
   -17.1489 -17.1443 -17.0216 -17.0157 -16.9930 -16.9918 -16.9845 -16.9830
     9.0404   9.8723  12.0505  12.0751  12.4734  12.7528  12.8208  12.8481
    12.9847  12.9968  13.0897  13.4033  13.4844  13.5165  13.7091  13.7491
    13.9550  13.9860  14.0735  14.1058  14.4884  14.6644  14.6716  14.8931
    14.8986  14.9261  15.0851  15.1559  15.1912  15.2095  15.4240  15.4571
    15.8268  15.8764  15.9416  15.9474  15.9533  16.0506  16.1065  16.1363
    16.1698  16.2226  16.3450  16.4807  16.5192  16.7676  16.8074  16.8359
    17.0482  17.2433  17.2597  17.4317  17.4605  17.5049  17.5310  17.5567
    17.5669  17.7567

          k = 0.0000 0.1283 0.2748 (  9324 PWs)   bands (ev):

   -70.7788 -70.7752 -70.7191 -70.7161 -70.7027 -70.7022 -70.7021 -70.7020
   -40.8734 -40.8710 -40.8237 -40.8212 -37.1585 -37.1478 -36.9356 -36.9097
   -36.8826 -36.8787 -36.8779 -36.8763 -36.8177 -36.8150 -36.8037 -36.8013
   -36.6913 -36.6842 -36.6772 -36.6656 -36.6654 -36.6641 -36.6377 -36.6375
   -36.6330 -36.6328 -36.6196 -36.6196 -17.1721 -17.1685 -17.1674 -17.1650
   -17.1470 -17.1455 -17.0201 -17.0180 -16.9895 -16.9893 -16.9868 -16.9861
     9.2667   9.5473  12.0780  12.0800  12.5950  12.6985  12.8521  12.8903
    12.9172  12.9374  13.2322  13.3435  13.5453  13.5871  13.6254  13.6675
    13.9876  14.0131  14.0274  14.0542  14.6849  14.7999  14.8016  14.8831
    14.8981  14.9450  15.0368  15.1007  15.1106  15.1462  15.3051  15.3241
    15.8711  15.8964  15.9090  15.9257  15.9659  16.0022  16.0996  16.1135
    16.1842  16.2049  16.4878  16.5743  16.6264  16.6767  16.6899  16.7820
    17.1356  17.2098  17.3435  17.4014  17.4818  17.4868  17.5043  17.5090
    17.6296  17.6975

          k = 0.0000 0.2566 0.0000 (  9314 PWs)   bands (ev):

   -70.7819 -70.7589 -70.7297 -70.7190 -70.7085 -70.7022 -70.7021 -70.6960
   -40.8747 -40.8601 -40.8352 -40.8197 -37.1518 -37.0822 -37.0022 -36.8889
   -36.8774 -36.8650 -36.8569 -36.8508 -36.8423 -36.7847 -36.7791 -36.7482
   -36.7396 -36.7384 -36.7368 -36.6718 -36.6622 -36.6563 -36.6466 -36.6403
   -36.6349 -36.6301 -36.6252 -36.6230 -17.1896 -17.1782 -17.1634 -17.1607
   -17.1496 -17.1233 -17.0402 -17.0065 -17.0052 -16.9909 -16.9762 -16.9726
     9.0889  11.0039  11.7370  12.1866  12.5719  12.5822  12.6236  12.8478
    12.9360  13.1058  13.2697  13.4445  13.4832  13.5557  13.7445  13.9198
    13.9578  14.1476  14.2065  14.2758  14.3287  14.3489  14.4146  14.5460
    14.5809  14.6648  14.8302  15.0760  15.0762  15.1849  15.3449  15.3736
    15.6106  15.7855  15.8016  15.9166  16.0670  16.0982  16.1381  16.1384
    16.2033  16.2619  16.4345  16.4622  16.5930  16.6914  16.7818  16.7922
    16.9416  17.1219  17.1691  17.1845  17.3120  17.5546  17.5891  17.6349
    17.6459  18.0238

          k = 0.0000 0.2566 0.0687 (  9309 PWs)   bands (ev):

   -70.7814 -70.7600 -70.7288 -70.7191 -70.7082 -70.7022 -70.7021 -70.6964
   -40.8744 -40.8608 -40.8345 -40.8200 -37.1505 -37.0869 -36.9957 -36.8893
   -36.8795 -36.8649 -36.8533 -36.8530 -36.8387 -36.8071 -36.7629 -36.7551
   -36.7536 -36.7279 -36.7219 -36.6719 -36.6620 -36.6568 -36.6465 -36.6415
   -36.6360 -36.6317 -36.6249 -36.6230 -17.1888 -17.1778 -17.1638 -17.1620
   -17.1485 -17.1241 -17.0394 -17.0106 -17.0011 -16.9904 -16.9766 -16.9733
     9.1217  10.8352  11.8785  12.1884  12.5053  12.5906  12.6864  12.8579
    12.9529  13.1096  13.2499  13.4201  13.4999  13.5651  13.7489  13.9156
    13.9431  14.1258  14.1469  14.2753  14.3434  14.3602  14.4813  14.5737
    14.5961  14.6871  14.8514  15.0568  15.0596  15.1894  15.3591  15.3653
    15.5929  15.7844  15.7858  15.8698  16.0422  16.0558  16.1489  16.1518
    16.2037  16.2708  16.4204  16.4441  16.5893  16.7061  16.7809  16.8133
    16.9722  17.1385  17.1878  17.2042  17.2983  17.5294  17.5673  17.5938
    17.7460  18.0119

          k = 0.0000 0.2566 0.1374 (  9303 PWs)   bands (ev):

   -70.7799 -70.7630 -70.7267 -70.7194 -70.7073 -70.7022 -70.7021 -70.6976
   -40.8734 -40.8626 -40.8325 -40.8210 -37.1467 -37.0976 -36.9798 -36.8923
   -36.8819 -36.8644 -36.8563 -36.8450 -36.8316 -36.8313 -36.7772 -36.7692
   -36.7345 -36.7141 -36.7067 -36.6718 -36.6612 -36.6590 -36.6462 -36.6451
   -36.6385 -36.6360 -36.6243 -36.6230 -17.1867 -17.1765 -17.1653 -17.1652
   -17.1457 -17.1262 -17.0372 -17.0153 -16.9963 -16.9890 -16.9778 -16.9751
     9.2191  10.5144  12.0937  12.1991  12.4525  12.6116  12.7392  12.8872
    13.0086  13.1075  13.2001  13.3788  13.5430  13.5747  13.7469  13.8946
    13.9232  14.0838  14.0886  14.2101  14.3471  14.4819  14.5808  14.6337
    14.6513  14.7359  14.8877  15.0170  15.0279  15.1800  15.3157  15.4258
    15.5183  15.7435  15.7855  15.8285  15.9840  15.9965  16.1130  16.1197
    16.1935  16.2900  16.3798  16.4815  16.5908  16.7179  16.7563  16.8445
    17.0302  17.1708  17.2336  17.2583  17.2758  17.4829  17.5820  17.6190
    17.7973  17.9760

          k = 0.0000 0.2566 0.2061 (  9303 PWs)   bands (ev):

   -70.7775 -70.7667 -70.7244 -70.7200 -70.7059 -70.7022 -70.7021 -70.6994
   -40.8719 -40.8651 -40.8300 -40.8227 -37.1407 -37.1100 -36.9593 -36.9013
   -36.8806 -36.8637 -36.8590 -36.8530 -36.8342 -36.8220 -36.7928 -36.7842
   -36.7158 -36.7032 -36.6929 -36.6711 -36.6634 -36.6600 -36.6506 -36.6457
   -36.6422 -36.6412 -36.6238 -36.6231 -17.1833 -17.1747 -17.1696 -17.1673
   -17.1420 -17.1295 -17.0338 -17.0201 -16.9913 -16.9870 -16.9797 -16.9781
     9.3790  10.1784  12.1740  12.2284  12.4934  12.6301  12.7834  12.9338
    13.0232  13.1344  13.1386  13.3461  13.5803  13.6040  13.7085  13.8399
    13.9402  14.0481  14.0651  14.1558  14.3910  14.5947  14.6725  14.6886
    14.7379  14.7755  14.8917  14.9721  15.0225  15.1516  15.2564  15.3935
    15.5132  15.7393  15.7762  15.8183  15.9109  15.9419  16.0099  16.0330
    16.2244  16.3337  16.3540  16.5434  16.6151  16.6785  16.7119  16.8304
    17.0823  17.2094  17.2133  17.3053  17.3370  17.5179  17.5579  17.6830
    17.7756  17.9180

          k = 0.0000 0.2566 0.2748 (  9316 PWs)   bands (ev):

   -70.7744 -70.7707 -70.7224 -70.7209 -70.7039 -70.7022 -70.7021 -70.7016
   -40.8700 -40.8676 -40.8273 -40.8248 -37.1323 -37.1219 -36.9373 -36.9167
   -36.8763 -36.8679 -36.8626 -36.8611 -36.8217 -36.8109 -36.8079 -36.7982
   -36.7029 -36.6984 -36.6806 -36.6706 -36.6680 -36.6619 -36.6532 -36.6488
   -36.6449 -36.6434 -36.6235 -36.6233 -17.1790 -17.1743 -17.1723 -17.1698
   -17.1378 -17.1336 -17.0296 -17.0250 -16.9865 -16.9845 -16.9820 -16.9820
     9.5971   9.8669  12.1943  12.2161  12.5778  12.6232  12.8563  12.9478
    12.9941  13.0630  13.2271  13.3016  13.6019  13.6496  13.6783  13.7607
    13.9785  14.0144  14.0786  14.1112  14.4870  14.5923  14.7403  14.7660
    14.7772  14.8037  14.8893  14.9211  15.0561  15.1081  15.2276  15.2785
    15.6148  15.7173  15.7700  15.8070  15.8838  15.9152  15.9236  15.9538
    16.2672  16.3137  16.4140  16.5187  16.6539  16.6756  16.6893  16.7601
    17.1282  17.1716  17.2555  17.3010  17.4234  17.5018  17.5924  17.6944
    17.7627  17.8442

          k = 0.0000 0.3849 0.0000 (  9302 PWs)   bands (ev):

   -70.7757 -70.7523 -70.7297 -70.7271 -70.7151 -70.7022 -70.7021 -70.6941
   -40.8695 -40.8546 -40.8408 -40.8252 -37.1149 -37.0463 -36.9987 -36.9039
   -36.8734 -36.8607 -36.8509 -36.8404 -36.8129 -36.7844 -36.7732 -36.7546
   -36.7425 -36.7394 -36.7370 -36.7115 -36.6839 -36.6833 -36.6692 -36.6449
   -36.6349 -36.6273 -36.6244 -36.6239 -17.1943 -17.1837 -17.1683 -17.1670
   -17.1426 -17.1054 -17.0570 -17.0146 -16.9987 -16.9857 -16.9709 -16.9695
     9.6365  11.3601  12.0242  12.0545  12.4054  12.5964  12.6520  12.9380
    13.0048  13.0744  13.5580  13.5724  13.5923  13.6380  13.7335  13.9245
    14.0049  14.1431  14.2466  14.2810  14.3295  14.3712  14.4138  14.4456
    14.4972  14.5433  14.5484  14.7729  14.7867  14.8875  14.9760  15.0802
    15.1013  15.4010  15.7123  15.9967  16.0867  16.1402  16.1501  16.1982
    16.2055  16.3348  16.4107  16.6317  16.6429  16.7422  16.7508  16.8474
    16.8555  17.0236  17.0278  17.3408  17.3952  17.6187  17.6793  17.6947
    17.7414  18.2416

          k = 0.0000 0.3849 0.0687 (  9297 PWs)   bands (ev):

   -70.7752 -70.7535 -70.7293 -70.7272 -70.7142 -70.7022 -70.7021 -70.6945
   -40.8692 -40.8556 -40.8398 -40.8255 -37.1137 -37.0521 -36.9916 -36.9051
   -36.8745 -36.8571 -36.8502 -36.8406 -36.8121 -36.7993 -36.7706 -36.7538
   -36.7523 -36.7350 -36.7243 -36.7099 -36.6840 -36.6816 -36.6687 -36.6464
   -36.6365 -36.6267 -36.6260 -36.6239 -17.1934 -17.1833 -17.1688 -17.1676
   -17.1421 -17.1073 -17.0551 -17.0160 -16.9973 -16.9853 -16.9713 -16.9702
     9.6672  11.2241  11.9820  12.2180  12.3836  12.6040  12.6658  12.9511
    12.9650  13.1167  13.5049  13.5261  13.6333  13.6822  13.7370  13.9185
    14.0002  14.1206  14.2211  14.3115  14.3134  14.3175  14.3808  14.4616
    14.5336  14.5710  14.6224  14.7696  14.7874  14.9177  14.9768  15.0690
    15.1097  15.4087  15.7124  15.9456  16.0590  16.0970  16.1452  16.1585
    16.2169  16.3734  16.3929  16.6314  16.6808  16.6874  16.7386  16.8503
    16.8662  17.0481  17.1079  17.3168  17.3855  17.5454  17.6341  17.7066
    17.8934  18.2194

          k = 0.0000 0.3849 0.1374 (  9293 PWs)   bands (ev):

   -70.7737 -70.7565 -70.7286 -70.7272 -70.7119 -70.7022 -70.7021 -70.6960
   -40.8684 -40.8577 -40.8376 -40.8264 -37.1104 -37.0638 -36.9761 -36.9089
   -36.8750 -36.8490 -36.8489 -36.8411 -36.8196 -36.8096 -36.7832 -36.7659
   -36.7421 -36.7273 -36.7116 -36.7033 -36.6847 -36.6764 -36.6672 -36.6505
   -36.6408 -36.6306 -36.6258 -36.6239 -17.1910 -17.1820 -17.1702 -17.1697
   -17.1402 -17.1122 -17.0502 -17.0196 -16.9938 -16.9839 -16.9726 -16.9723
     9.7583  10.9461  11.9949  12.3257  12.4341  12.6264  12.6997  12.9226
    12.9895  13.1634  13.4216  13.4518  13.6857  13.7445  13.7531  13.8994
    13.9830  14.0795  14.1942  14.2395  14.2815  14.3046  14.4162  14.5095
    14.5645  14.6155  14.6840  14.7935  14.8207  14.9747  14.9755  15.0494
    15.1497  15.4381  15.7122  15.8449  15.9735  16.0208  16.0591  16.1250
    16.2208  16.3651  16.4099  16.6307  16.6539  16.7240  16.7344  16.8468
    16.8975  17.0924  17.2273  17.2758  17.3565  17.4665  17.6594  17.7426
    18.0238  18.1640

          k = 0.0000 0.3849 0.2061 (  9298 PWs)   bands (ev):

   -70.7713 -70.7604 -70.7281 -70.7273 -70.7085 -70.7022 -70.7021 -70.6983
   -40.8670 -40.8603 -40.8349 -40.8279 -37.1048 -37.0762 -36.9585 -36.9158
   -36.8726 -36.8469 -36.8419 -36.8411 -36.8362 -36.8051 -36.7979 -36.7785
   -36.7332 -36.7247 -36.7012 -36.6916 -36.6862 -36.6684 -36.6642 -36.6574
   -36.6465 -36.6381 -36.6251 -36.6241 -17.1873 -17.1800 -17.1732 -17.1723
   -17.1367 -17.1187 -17.0439 -17.0246 -16.9893 -16.9818 -16.9755 -16.9744
     9.9074  10.6440  12.0358  12.2492  12.5949  12.6579  12.7476  12.8942
    13.0511  13.1976  13.3253  13.3717  13.7444  13.7528  13.8056  13.8959
    13.9435  14.0420  14.1809  14.1938  14.2425  14.3236  14.4530  14.5294
    14.5834  14.6227  14.7232  14.8478  14.8583  14.9724  15.0013  15.0543
    15.2591  15.5021  15.6968  15.7664  15.8582  15.9325  15.9521  16.0076
    16.2574  16.3509  16.4438  16.6261  16.6863  16.7020  16.7123  16.8500
    16.9481  17.1339  17.1719  17.3097  17.3823  17.5202  17.6440  17.8166
    17.9890  18.0896

          k = 0.0000 0.3849 0.2748 (  9295 PWs)   bands (ev):

   -70.7682 -70.7644 -70.7277 -70.7274 -70.7049 -70.7022 -70.7021 -70.7013
   -40.8651 -40.8629 -40.8323 -40.8299 -37.0972 -37.0875 -36.9412 -36.9266
   -36.8662 -36.8552 -36.8449 -36.8432 -36.8258 -36.8124 -36.7984 -36.7894
   -36.7278 -36.7252 -36.6935 -36.6888 -36.6788 -36.6672 -36.6594 -36.6579
   -36.6531 -36.6475 -36.6246 -36.6243 -17.1827 -17.1777 -17.1776 -17.1749
   -17.1316 -17.1254 -17.0371 -17.0305 -16.9844 -16.9797 -16.9794 -16.9768
    10.1100  10.3591  12.0955  12.1687  12.6664  12.6797  12.8096  12.8614
    13.1316  13.2255  13.2393  13.2979  13.7652  13.7887  13.8110  13.8812
    13.9533  14.0035  14.1876  14.2081  14.2181  14.2895  14.4870  14.5297
    14.5975  14.6118  14.7645  14.8184  14.9286  14.9809  15.0074  15.0511
    15.4257  15.5988  15.6037  15.7171  15.7768  15.8395  15.8859  15.9221
    16.2978  16.3302  16.5039  16.5930  16.6467  16.6748  16.7710  16.8251
    17.0147  17.0917  17.1843  17.2476  17.4921  17.5831  17.6676  17.8405
    17.9104  18.0039

          k = 0.0000 0.5132 0.0000 (  9286 PWs)   bands (ev):

   -70.7705 -70.7463 -70.7333 -70.7296 -70.7211 -70.7022 -70.7021 -70.6931
   -40.8646 -40.8495 -40.8460 -40.8304 -37.0851 -37.0155 -36.9962 -36.9258
   -36.8629 -36.8626 -36.8508 -36.8194 -36.7837 -36.7819 -36.7730 -36.7549
   -36.7542 -36.7414 -36.7380 -36.7370 -36.7144 -36.6959 -36.6883 -36.6483
   -36.6348 -36.6280 -36.6241 -36.6210 -17.1954 -17.1871 -17.1719 -17.1713
   -17.1371 -17.0940 -17.0681 -17.0207 -16.9937 -16.9825 -16.9690 -16.9676
    10.2929  11.2450  11.9150  12.2544  12.3211  12.6250  12.7855  12.9143
    13.0082  13.1848  13.6089  13.6407  13.6900  13.8685  13.8754  13.9681
    14.0042  14.0498  14.1586  14.2126  14.3578  14.3932  14.4228  14.4349
    14.4822  14.4856  14.5604  14.5636  14.5650  14.6326  14.6348  14.7257
    14.8640  15.1164  15.7389  16.0589  16.0602  16.1245  16.1805  16.2050
    16.2454  16.2842  16.3132  16.6106  16.6641  16.8205  16.8615  16.8970
    16.9409  17.0322  17.1298  17.3470  17.4000  17.5308  17.5827  17.6659
    17.8310  18.2320

          k = 0.0000 0.5132 0.0687 (  9305 PWs)   bands (ev):

   -70.7700 -70.7475 -70.7333 -70.7305 -70.7191 -70.7022 -70.7021 -70.6937
   -40.8644 -40.8512 -40.8442 -40.8306 -37.0842 -37.0241 -36.9871 -36.9263
   -36.8667 -36.8565 -36.8498 -36.8203 -36.7925 -36.7816 -36.7771 -36.7554
   -36.7537 -36.7492 -36.7303 -36.7296 -36.7146 -36.6921 -36.6866 -36.6498
   -36.6367 -36.6273 -36.6241 -36.6227 -17.1945 -17.1867 -17.1721 -17.1719
   -17.1369 -17.0978 -17.0644 -17.0214 -16.9931 -16.9821 -16.9697 -16.9681
    10.3199  11.2544  11.7866  12.2093  12.4440  12.6357  12.7831  12.9007
    13.0235  13.1896  13.5880  13.6593  13.6742  13.8741  13.8915  13.9668
    14.0103  14.0410  14.1384  14.2059  14.2933  14.3806  14.4153  14.4402
    14.5017  14.5029  14.5221  14.5645  14.5681  14.6717  14.7139  14.7427
    14.8810  15.1391  15.7395  16.0173  16.0349  16.1267  16.1576  16.1638
    16.1951  16.2429  16.4306  16.6391  16.6838  16.7862  16.8126  16.8265
    16.9281  17.1390  17.1830  17.3092  17.3670  17.4911  17.6902  17.6955
    17.8315  18.2225

          k = 0.0000 0.5132 0.1374 (  9307 PWs)   bands (ev):

   -70.7685 -70.7506 -70.7332 -70.7317 -70.7148 -70.7022 -70.7021 -70.6952
   -40.8637 -40.8539 -40.8415 -40.8314 -37.0812 -37.0371 -36.9723 -36.9281
   -36.8675 -36.8482 -36.8470 -36.8227 -36.8097 -36.7875 -36.7806 -36.7582
   -36.7547 -36.7536 -36.7238 -36.7148 -36.7139 -36.6826 -36.6815 -36.6542
   -36.6414 -36.6274 -36.6263 -36.6242 -17.1921 -17.1854 -17.1733 -17.1732
   -17.1361 -17.1057 -17.0566 -17.0236 -16.9910 -16.9807 -16.9717 -16.9693
    10.3998  11.2514  11.5985  12.1029  12.6177  12.6685  12.7755  12.8833
    13.0687  13.2042  13.5420  13.5779  13.7326  13.8880  13.9145  13.9506
    14.0191  14.0379  14.1375  14.1423  14.2690  14.3381  14.4190  14.4192
    14.4871  14.4908  14.5282  14.5792  14.5808  14.7497  14.7771  14.7890
    14.9845  15.2169  15.7409  15.9134  15.9588  16.0453  16.0803  16.1163
    16.2021  16.2407  16.5176  16.6470  16.7060  16.7235  16.7833  16.8057
    16.9041  17.1750  17.2860  17.3221  17.3463  17.4399  17.7634  17.8267
    17.8609  18.1827

          k = 0.0000 0.5132 0.2061 (  9307 PWs)   bands (ev):

   -70.7660 -70.7546 -70.7332 -70.7324 -70.7100 -70.7022 -70.7021 -70.6978
   -40.8625 -40.8565 -40.8388 -40.8326 -37.0761 -37.0494 -36.9581 -36.9314
   -36.8646 -36.8427 -36.8383 -36.8277 -36.8267 -36.8003 -36.7788 -36.7659
   -36.7541 -36.7535 -36.7196 -36.7152 -36.6979 -36.6737 -36.6704 -36.6613
   -36.6478 -36.6352 -36.6254 -36.6243 -17.1883 -17.1834 -17.1755 -17.1755
   -17.1336 -17.1143 -17.0482 -17.0275 -16.9876 -16.9786 -16.9750 -16.9712
    10.5297  11.1239  11.5608  11.9568  12.6785  12.7477  12.7901  12.8827
    13.1413  13.2382  13.4678  13.4682  13.7929  13.9075  13.9117  13.9300
    13.9904  14.0442  14.0840  14.1916  14.2976  14.3214  14.3871  14.3936
    14.4661  14.4830  14.5156  14.5693  14.6326  14.7712  14.8153  14.8381
    15.1765  15.3520  15.7220  15.7924  15.8711  15.9423  15.9806  16.0404
    16.2245  16.2494  16.5665  16.5923  16.7104  16.7440  16.8014  16.8296
    16.8424  17.1797  17.2328  17.3569  17.4652  17.4802  17.7599  17.8876
    17.9640  18.0892

          k = 0.0000 0.5132 0.2748 (  9312 PWs)   bands (ev):

   -70.7628 -70.7589 -70.7330 -70.7328 -70.7054 -70.7022 -70.7021 -70.7012
   -40.8609 -40.8588 -40.8364 -40.8343 -37.0690 -37.0601 -36.9460 -36.9371
   -36.8569 -36.8446 -36.8374 -36.8318 -36.8261 -36.8135 -36.7760 -36.7719
   -36.7538 -36.7537 -36.7173 -36.7159 -36.6835 -36.6713 -36.6648 -36.6574
   -36.6558 -36.6453 -36.6249 -36.6246 -17.1838 -17.1809 -17.1793 -17.1781
   -17.1289 -17.1223 -17.0401 -17.0331 -16.9834 -16.9790 -16.9761 -16.9735
    10.7036  10.9108  11.6566  11.7994  12.7067  12.7321  12.8616  12.8857
    13.2370  13.2991  13.3492  13.3808  13.8462  13.8870  13.9318  13.9345
    13.9601  13.9731  14.1409  14.1928  14.3294  14.3404  14.3542  14.3693
    14.4785  14.4864  14.4986  14.5287  14.6889  14.7377  14.8565  14.8643
    15.3951  15.5144  15.6017  15.6662  15.8245  15.8527  15.9359  15.9729
    16.2427  16.2521  16.6090  16.6146  16.6579  16.6826  16.8151  16.8300
    16.9407  17.0611  17.2824  17.3221  17.5920  17.6214  17.6874  17.8034
    17.9910  18.0827

          k = 0.1111 0.1925 0.0000 (  9311 PWs)   bands (ev):

   -70.7833 -70.7604 -70.7297 -70.7169 -70.7070 -70.7022 -70.7021 -70.6967
   -40.8758 -40.8613 -40.8339 -40.8185 -37.1602 -37.0906 -37.0030 -36.8874
   -36.8789 -36.8691 -36.8556 -36.8509 -36.8482 -36.7847 -36.7809 -36.7459
   -36.7389 -36.7383 -36.7369 -36.6642 -36.6606 -36.6444 -36.6385 -36.6371
   -36.6357 -36.6316 -36.6263 -36.6258 -17.1872 -17.1773 -17.1625 -17.1591
   -17.1508 -17.1283 -17.0356 -17.0068 -17.0050 -16.9919 -16.9772 -16.9744
     8.9742  10.9206  11.6640  12.1632  12.5616  12.5983  12.6738  12.8172
    12.9350  13.1294  13.1877  13.4141  13.4662  13.5071  13.7731  13.8889
    13.9730  14.0959  14.2279  14.2822  14.3252  14.3291  14.3921  14.5981
    14.6439  14.6914  14.9526  15.1061  15.2034  15.2138  15.4253  15.5738
    15.7216  15.7608  15.8173  15.9025  15.9684  16.0975  16.1479  16.1994
    16.2490  16.2654  16.3848  16.4662  16.4679  16.7108  16.7723  16.8569
    16.9266  17.0700  17.2192  17.3049  17.3624  17.3714  17.6018  17.6369
    17.6954  17.8302

          k = 0.1111 0.1925 0.0687 (  9318 PWs)   bands (ev):

   -70.7828 -70.7615 -70.7287 -70.7170 -70.7068 -70.7022 -70.7021 -70.6971
   -40.8755 -40.8620 -40.8332 -40.8188 -37.1591 -37.0951 -36.9967 -36.8870
   -36.8813 -36.8694 -36.8553 -36.8519 -36.8425 -36.8091 -36.7592 -36.7587
   -36.7527 -36.7261 -36.7218 -36.6643 -36.6606 -36.6456 -36.6400 -36.6367
   -36.6361 -36.6329 -36.6262 -36.6257 -17.1865 -17.1769 -17.1630 -17.1606
   -17.1495 -17.1288 -17.0350 -17.0104 -17.0014 -16.9914 -16.9776 -16.9750
     9.0073  10.7476  11.8119  12.1634  12.5007  12.6412  12.6742  12.8732
    12.9319  13.1268  13.1723  13.3902  13.4808  13.5223  13.7730  13.8858
    13.9569  14.0779  14.1608  14.2629  14.3377  14.3719  14.4652  14.6269
    14.6579  14.7160  14.9600  15.0984  15.1775  15.2049  15.4494  15.5523
    15.6958  15.7277  15.8109  15.9039  15.9487  16.0884  16.1299  16.1925
    16.2433  16.2773  16.3518  16.4652  16.5006  16.7127  16.7711  16.8655
    16.9598  17.1076  17.2215  17.2969  17.3696  17.3860  17.5805  17.6344
    17.7180  17.8122

          k = 0.1111 0.1925 0.1374 (  9302 PWs)   bands (ev):

   -70.7813 -70.7644 -70.7265 -70.7174 -70.7062 -70.7022 -70.7021 -70.6982
   -40.8745 -40.8638 -40.8314 -40.8198 -37.1552 -37.1056 -36.9807 -36.8876
   -36.8857 -36.8692 -36.8594 -36.8436 -36.8346 -36.8341 -36.7754 -36.7700
   -36.7337 -36.7117 -36.7065 -36.6651 -36.6609 -36.6492 -36.6432 -36.6388
   -36.6364 -36.6350 -36.6259 -36.6257 -17.1844 -17.1757 -17.1643 -17.1639
   -17.1467 -17.1305 -17.0333 -17.0147 -16.9968 -16.9901 -16.9788 -16.9768
     9.1060  10.4202  12.0456  12.1643  12.4514  12.6732  12.6892  12.9309
    12.9949  13.1011  13.1328  13.3622  13.5202  13.5367  13.7556  13.8668
    13.9379  14.0415  14.1000  14.1936  14.3638  14.5007  14.5736  14.6922
    14.7007  14.7719  14.9731  15.0850  15.1125  15.1754  15.4885  15.5003
    15.5517  15.7405  15.8087  15.9062  15.9103  16.0474  16.0966  16.1388
    16.2205  16.2818  16.3517  16.4716  16.5518  16.7146  16.7533  16.8563
    17.0378  17.1865  17.2317  17.3211  17.3868  17.4307  17.5483  17.6253
    17.7400  17.7638

          k = 0.1111 0.1925 0.2061 (  9301 PWs)   bands (ev):

   -70.7790 -70.7682 -70.7237 -70.7181 -70.7051 -70.7022 -70.7021 -70.6998
   -40.8730 -40.8662 -40.8289 -40.8215 -37.1490 -37.1180 -36.9596 -36.8979
   -36.8833 -36.8686 -36.8627 -36.8565 -36.8329 -36.8241 -36.7913 -36.7852
   -36.7135 -36.6997 -36.6923 -36.6666 -36.6616 -36.6553 -36.6472 -36.6444
   -36.6362 -36.6356 -36.6258 -36.6256 -17.1812 -17.1739 -17.1680 -17.1664
   -17.1434 -17.1330 -17.0307 -17.0190 -16.9922 -16.9880 -16.9806 -16.9796
     9.2678  10.0785  12.1670  12.1703  12.4895  12.6641  12.7520  12.9448
    13.0337  13.0801  13.1281  13.3534  13.5411  13.5779  13.6984  13.8121
    13.9544  14.0248  14.0627  14.1354  14.4348  14.6389  14.6824  14.7170
    14.7952  14.8280  14.9755  15.0267  15.0724  15.1350  15.3742  15.3878
    15.5941  15.7523  15.8168  15.8752  15.9045  15.9796  16.0442  16.0475
    16.2178  16.3050  16.3711  16.5257  16.5981  16.6628  16.7235  16.8013
    17.1237  17.2544  17.2550  17.3331  17.4526  17.4980  17.5219  17.5965
    17.7142  17.7239

          k = 0.1111 0.1925 0.2748 (  9323 PWs)   bands (ev):

   -70.7758 -70.7721 -70.7213 -70.7194 -70.7036 -70.7022 -70.7022 -70.7017
   -40.8710 -40.8687 -40.8262 -40.8236 -37.1406 -37.1301 -36.9366 -36.9147
   -36.8792 -36.8717 -36.8668 -36.8653 -36.8204 -36.8126 -36.8064 -36.7996
   -36.6987 -36.6937 -36.6797 -36.6704 -36.6633 -36.6623 -36.6499 -36.6489
   -36.6361 -36.6359 -36.6257 -36.6256 -17.1772 -17.1729 -17.1712 -17.1689
   -17.1398 -17.1362 -17.0272 -17.0233 -16.9876 -16.9856 -16.9832 -16.9830
     9.4887   9.7623  12.1738  12.1833  12.5792  12.6375  12.8377  12.9374
    12.9792  13.0261  13.2432  13.3228  13.5650  13.6228  13.6520  13.7325
    13.9874  14.0166  14.0559  14.0881  14.5532  14.6669  14.7702  14.7736
    14.8598  14.8814  14.9395  14.9548  15.0679  15.0945  15.2752  15.2902
    15.6740  15.7374  15.8449  15.8633  15.8878  15.9020  16.0003  16.0017
    16.2449  16.2857  16.4411  16.5549  16.6177  16.6449  16.6880  16.7163
    17.2023  17.2645  17.2908  17.3154  17.4976  17.5047  17.5601  17.5670
    17.6804  17.6821

          k = 0.1111 0.3208 0.0000 (  9302 PWs)   bands (ev):

   -70.7779 -70.7547 -70.7297 -70.7244 -70.7127 -70.7022 -70.7021 -70.6946
   -40.8714 -40.8566 -40.8388 -40.8232 -37.1273 -37.0584 -36.9998 -36.8957
   -36.8835 -36.8592 -36.8514 -36.8465 -36.8225 -36.7844 -36.7738 -36.7531
   -36.7406 -36.7394 -36.7379 -36.7019 -36.6808 -36.6587 -36.6529 -36.6423
   -36.6358 -36.6322 -36.6313 -36.6262 -17.1922 -17.1838 -17.1682 -17.1647
   -17.1431 -17.1098 -17.0524 -17.0136 -17.0009 -16.9862 -16.9720 -16.9705
     9.4236  11.2425  11.9356  12.2025  12.4913  12.5662  12.6028  12.8812
    13.0053  13.0235  13.4027  13.5269  13.5810  13.6621  13.7018  13.9299
    13.9442  14.1605  14.2324  14.2940  14.3441  14.3801  14.4401  14.4614
    14.5270  14.5857  14.6028  14.7876  14.9393  14.9980  15.1072  15.2780
    15.3012  15.4898  15.7471  15.8534  16.0010  16.0860  16.1569  16.2303
    16.2639  16.2918  16.5236  16.5352  16.6349  16.6526  16.7620  16.9075
    16.9562  17.0392  17.1589  17.3010  17.3150  17.3921  17.7007  17.7313
    17.8428  17.9699

          k = 0.1111 0.3208 0.0687 (  9291 PWs)   bands (ev):

   -70.7774 -70.7559 -70.7291 -70.7244 -70.7121 -70.7021 -70.7021 -70.6951
   -40.8711 -40.8574 -40.8379 -40.8235 -37.1261 -37.0637 -36.9930 -36.8972
   -36.8836 -36.8565 -36.8512 -36.8462 -36.8214 -36.8019 -36.7657 -36.7588
   -36.7501 -36.7310 -36.7244 -36.7011 -36.6796 -36.6589 -36.6530 -36.6435
   -36.6372 -36.6318 -36.6315 -36.6275 -17.1914 -17.1833 -17.1687 -17.1654
   -17.1424 -17.1112 -17.0509 -17.0153 -16.9992 -16.9857 -16.9726 -16.9711
     9.4551  11.0864  12.0558  12.2138  12.4805  12.5629  12.6012  12.9173
    12.9953  13.0479  13.3762  13.5004  13.5978  13.6653  13.7139  13.9273
    13.9444  14.1205  14.2187  14.2887  14.3163  14.3873  14.4464  14.4636
    14.5567  14.6051  14.6718  14.8067  14.9246  14.9980  15.1256  15.2665
    15.2951  15.4933  15.7461  15.8185  15.9654  16.0695  16.1652  16.1866
    16.2530  16.3027  16.4478  16.5818  16.6388  16.6866  16.7479  16.9181
    16.9620  17.0667  17.1843  17.2897  17.3222  17.4001  17.6205  17.7615
    17.8974  17.9533

          k = 0.1111 0.3208 0.1374 (  9299 PWs)   bands (ev):

   -70.7759 -70.7588 -70.7278 -70.7246 -70.7104 -70.7022 -70.7021 -70.6964
   -40.8702 -40.8595 -40.8358 -40.8245 -37.1227 -37.0751 -36.9775 -36.9023
   -36.8825 -36.8518 -36.8506 -36.8438 -36.8239 -36.8179 -36.7800 -36.7689
   -36.7382 -36.7206 -36.7105 -36.6977 -36.6763 -36.6599 -36.6532 -36.6471
   -36.6404 -36.6336 -36.6312 -36.6297 -17.1890 -17.1820 -17.1702 -17.1676
   -17.1404 -17.1152 -17.0471 -17.0191 -16.9955 -16.9844 -16.9743 -16.9725
     9.5489  10.7853  12.1756  12.3056  12.4402  12.5667  12.6384  12.9661
    13.0050  13.0935  13.3156  13.4380  13.6330  13.6705  13.7391  13.9218
    13.9453  14.0642  14.1722  14.2096  14.3306  14.3777  14.4996  14.5137
    14.6149  14.6378  14.7643  14.8587  14.9010  14.9997  15.1530  15.2473
    15.2874  15.5096  15.7314  15.7528  15.9069  16.0098  16.1000  16.1432
    16.1883  16.3019  16.4475  16.5925  16.6540  16.7125  16.7388  16.8922
    17.0271  17.1102  17.2525  17.2591  17.3482  17.4155  17.5709  17.7647
    17.8696  17.9894

          k = 0.1111 0.3208 0.2061 (  9310 PWs)   bands (ev):

   -70.7736 -70.7627 -70.7266 -70.7248 -70.7077 -70.7022 -70.7021 -70.6986
   -40.8688 -40.8620 -40.8332 -40.8260 -37.1170 -37.0875 -36.9587 -36.9109
   -36.8791 -36.8508 -36.8499 -36.8431 -36.8357 -36.8122 -36.7954 -36.7820
   -36.7264 -36.7158 -36.6973 -36.6904 -36.6708 -36.6616 -36.6557 -36.6507
   -36.6441 -36.6398 -36.6307 -36.6302 -17.1855 -17.1801 -17.1725 -17.1710
   -17.1368 -17.1205 -17.0417 -17.0241 -16.9909 -16.9823 -16.9773 -16.9746
     9.7026  10.4670  12.2052  12.3321  12.4903  12.5815  12.7200  12.9567
    13.0512  13.1575  13.2434  13.3672  13.6635  13.6885  13.7438  13.9054
    13.9548  14.0290  14.1366  14.1587  14.3111  14.4118  14.5524  14.5696
    14.6447  14.6629  14.8323  14.8869  14.9301  15.0020  15.1297  15.2216
    15.3470  15.5439  15.6839  15.7446  15.8460  15.9182  15.9700  16.0181
    16.2074  16.2995  16.4944  16.5988  16.6723  16.6805  16.7301  16.8557
    17.1002  17.1524  17.2478  17.3078  17.3631  17.4449  17.5979  17.7551
    17.8036  17.9602

          k = 0.1111 0.3208 0.2748 (  9300 PWs)   bands (ev):

   -70.7704 -70.7667 -70.7257 -70.7251 -70.7046 -70.7021 -70.7021 -70.7014
   -40.8669 -40.8645 -40.8305 -40.8281 -37.1090 -37.0991 -36.9398 -36.9233
   -36.8724 -36.8616 -36.8492 -36.8485 -36.8239 -36.8102 -36.8041 -36.7939
   -36.7192 -36.7158 -36.6865 -36.6836 -36.6670 -36.6624 -36.6592 -36.6530
   -36.6468 -36.6459 -36.6305 -36.6303 -17.1811 -17.1779 -17.1758 -17.1744
   -17.1320 -17.1264 -17.0357 -17.0297 -16.9860 -16.9815 -16.9795 -16.9770
     9.9119  10.1701  12.2361  12.2796  12.5595  12.5850  12.8215  12.9062
    13.1041  13.1675  13.2335  13.3009  13.6763  13.6977  13.7677  13.8390
    13.9922  14.0156  14.1265  14.1358  14.3349  14.3928  14.5913  14.6132
    14.6383  14.6749  14.8800  14.9191  14.9423  14.9865  15.1264  15.1740
    15.4597  15.5534  15.7137  15.7381  15.7710  15.8208  15.8861  15.9243
    16.2440  16.2807  16.5336  16.5927  16.6535  16.6798  16.7471  16.7971
    17.1727  17.1933  17.2232  17.2581  17.4396  17.4725  17.6647  17.7307
    17.7758  17.8605

          k = 0.1111 0.4491 0.0000 (  9291 PWs)   bands (ev):

   -70.7719 -70.7479 -70.7317 -70.7296 -70.7195 -70.7022 -70.7021 -70.6933
   -40.8660 -40.8509 -40.8445 -40.8289 -37.0911 -37.0222 -36.9968 -36.9201
   -36.8787 -36.8618 -36.8519 -36.8200 -36.7917 -36.7839 -36.7704 -36.7557
   -36.7492 -36.7395 -36.7389 -36.7369 -36.6947 -36.6883 -36.6752 -36.6459
   -36.6357 -36.6342 -36.6322 -36.6219 -17.1944 -17.1881 -17.1730 -17.1709
   -17.1345 -17.0938 -17.0676 -17.0228 -16.9946 -16.9815 -16.9715 -16.9657
    10.0386  11.5129  11.8781  12.2348  12.3696  12.6234  12.6530  12.9073
    12.9354  13.1306  13.6028  13.6472  13.7225  13.7292  13.8060  13.9233
    13.9558  14.0917  14.2235  14.2434  14.3165  14.3788  14.3860  14.4533
    14.4778  14.4867  14.5500  14.6284  14.6593  14.7758  14.7794  14.8271
    15.0344  15.2148  15.6914  15.8631  16.0234  16.0637  16.1361  16.2128
    16.3070  16.3388  16.4194  16.5990  16.6715  16.7558  16.8036  16.8778
    17.0307  17.1015  17.1193  17.3379  17.3414  17.4585  17.6852  17.7861
    17.8617  18.1449

          k = 0.1111 0.4491 0.0687 (  9291 PWs)   bands (ev):

   -70.7714 -70.7491 -70.7317 -70.7301 -70.7179 -70.7022 -70.7021 -70.6938
   -40.8657 -40.8522 -40.8432 -40.8292 -37.0900 -37.0297 -36.9885 -36.9210
   -36.8786 -36.8592 -36.8510 -36.8206 -36.7948 -36.7910 -36.7729 -36.7592
   -36.7497 -36.7444 -36.7299 -36.7279 -36.6928 -36.6871 -36.6745 -36.6474
   -36.6380 -36.6331 -36.6323 -36.6234 -17.1937 -17.1876 -17.1736 -17.1710
   -17.1344 -17.0974 -17.0641 -17.0234 -16.9940 -16.9810 -16.9722 -16.9662
    10.0673  11.4445  11.8103  12.3147  12.3951  12.6157  12.6639  12.8770
    12.9735  13.1442  13.5652  13.6257  13.7314  13.7582  13.8195  13.9195
    13.9655  14.0901  14.1597  14.2220  14.2988  14.3674  14.4117  14.4290
    14.4810  14.5128  14.5944  14.6077  14.6780  14.7797  14.8294  14.8476
    15.0421  15.2264  15.6903  15.8439  15.9780  16.0471  16.1519  16.1809
    16.2699  16.2919  16.4827  16.6206  16.6621  16.7246  16.8146  16.8942
    16.9749  17.1139  17.2210  17.2986  17.3400  17.4393  17.6493  17.8552
    17.9017  18.0982

          k = 0.1111 0.4491 0.1374 (  9292 PWs)   bands (ev):

   -70.7699 -70.7522 -70.7317 -70.7307 -70.7141 -70.7022 -70.7021 -70.6954
   -40.8649 -40.8548 -40.8406 -40.8300 -37.0869 -37.0424 -36.9738 -36.9237
   -36.8772 -36.8529 -36.8483 -36.8223 -36.8126 -36.7917 -36.7829 -36.7661
   -36.7487 -36.7452 -36.7174 -36.7149 -36.6906 -36.6809 -36.6722 -36.6517
   -36.6423 -36.6328 -36.6321 -36.6275 -17.1914 -17.1861 -17.1752 -17.1718
   -17.1337 -17.1048 -17.0567 -17.0254 -16.9921 -16.9796 -16.9741 -16.9675
    10.1527  11.2348  11.7937  12.2651  12.5648  12.6200  12.6835  12.8516
    13.0328  13.1742  13.4965  13.5525  13.7670  13.7967  13.8585  13.9108
    13.9692  14.0795  14.0959  14.1671  14.2766  14.3538  14.3882  14.4157
    14.5098  14.5475  14.5807  14.6145  14.7319  14.8307  14.8514  14.9514
    15.0808  15.2740  15.6872  15.7825  15.8896  15.9962  16.0943  16.1686
    16.1793  16.2657  16.5472  16.5903  16.6894  16.7204  16.8092  16.9228
    16.9531  17.1334  17.2646  17.3052  17.3531  17.4025  17.6536  17.8693
    18.0137  18.0793

          k = 0.1111 0.4491 0.2061 (  9296 PWs)   bands (ev):

   -70.7674 -70.7562 -70.7316 -70.7312 -70.7097 -70.7022 -70.7021 -70.6979
   -40.8637 -40.8574 -40.8379 -40.8313 -37.0818 -37.0547 -36.9589 -36.9285
   -36.8725 -36.8454 -36.8442 -36.8316 -36.8235 -36.8001 -36.7864 -36.7736
   -36.7472 -36.7455 -36.7079 -36.7031 -36.6876 -36.6711 -36.6677 -36.6585
   -36.6481 -36.6371 -36.6316 -36.6306 -17.1882 -17.1837 -17.1777 -17.1737
   -17.1314 -17.1131 -17.0486 -17.0289 -16.9890 -16.9777 -16.9768 -16.9695
    10.2919  10.9698  11.8483  12.1635  12.6357  12.6725  12.7349  12.8389
    13.1131  13.2165  13.4116  13.4579  13.8027  13.8232  13.8881  13.9209
    13.9449  14.0468  14.0675  14.1870  14.2386  14.3165  14.3940  14.4056
    14.5137  14.5413  14.5753  14.6237  14.7637  14.8666  14.9260  14.9960
    15.2106  15.3710  15.6736  15.7110  15.7818  15.9017  16.0056  16.0617
    16.1938  16.2487  16.5867  16.5951  16.6758  16.7255  16.8109  16.9121
    16.9925  17.1393  17.2308  17.3163  17.3681  17.4674  17.7137  17.8592
    17.9541  18.0841

          k = 0.1111 0.4491 0.2748 (  9302 PWs)   bands (ev):

   -70.7642 -70.7604 -70.7315 -70.7314 -70.7052 -70.7021 -70.7021 -70.7012
   -40.8620 -40.8599 -40.8354 -40.8331 -37.0746 -37.0655 -36.9459 -36.9357
   -36.8635 -36.8503 -36.8403 -36.8380 -36.8220 -36.8125 -36.7840 -36.7798
   -36.7463 -36.7458 -36.7019 -36.6996 -36.6789 -36.6684 -36.6627 -36.6588
   -36.6542 -36.6464 -36.6314 -36.6311 -17.1845 -17.1813 -17.1799 -17.1768
   -17.1271 -17.1208 -17.0409 -17.0342 -16.9851 -16.9810 -16.9748 -16.9721
    10.4804  10.7104  11.9383  12.0480  12.6643  12.6803  12.7982  12.8264
    13.2120  13.2786  13.3159  13.3624  13.8309  13.8401  13.8699  13.9040
    13.9806  14.0165  14.0904  14.1637  14.2391  14.2841  14.4001  14.4066
    14.5204  14.5433  14.5609  14.6051  14.8126  14.8558  14.9862  15.0041
    15.3853  15.4735  15.6210  15.6556  15.7052  15.7815  15.9612  15.9846
    16.2151  16.2342  16.6133  16.6233  16.6647  16.6835  16.8413  16.8816
    17.0494  17.1073  17.2310  17.2666  17.4621  17.5036  17.7905  17.8483
    17.9002  17.9610

          k = 0.1111 0.5774 0.0000 (  9302 PWs)   bands (ev):

   -70.7689 -70.7441 -70.7352 -70.7296 -70.7233 -70.7022 -70.7021 -70.6929
   -40.8627 -40.8479 -40.8475 -40.8324 -37.0733 -37.0022 -36.9956 -36.9378
   -36.8749 -36.8627 -36.8522 -36.8049 -36.7840 -36.7729 -36.7708 -36.7690
   -36.7548 -36.7433 -36.7395 -36.7293 -36.7169 -36.6938 -36.6899 -36.6475
   -36.6358 -36.6346 -36.6324 -36.6204 -17.1955 -17.1886 -17.1749 -17.1740
   -17.1303 -17.0870 -17.0743 -17.0273 -16.9915 -16.9797 -16.9722 -16.9637
    10.5515  11.1381  12.0647  12.1991  12.3697  12.6673  12.7085  12.8393
    12.9682  13.1695  13.6593  13.6800  13.8076  13.8482  13.9047  13.9492
    13.9739  14.0686  14.1020  14.1266  14.2180  14.3476  14.3761  14.4331
    14.4875  14.5020  14.5329  14.5464  14.6394  14.6561  14.6864  14.7973
    14.8257  15.0484  15.7206  15.8618  15.9266  16.0905  16.1125  16.1727
    16.3134  16.3915  16.3958  16.6478  16.6641  16.7285  16.9399  16.9798
    17.0564  17.1253  17.1378  17.1499  17.3630  17.5165  17.6614  17.7141
    17.9369  18.1443

          k = 0.1111 0.5774 0.0687 (  9286 PWs)   bands (ev):

   -70.7684 -70.7452 -70.7351 -70.7313 -70.7205 -70.7022 -70.7021 -70.6934
   -40.8625 -40.8504 -40.8450 -40.8326 -37.0723 -37.0135 -36.9839 -36.9380
   -36.8749 -36.8599 -36.8511 -36.8061 -36.7903 -36.7783 -36.7734 -36.7694
   -36.7547 -36.7426 -36.7340 -36.7262 -36.7153 -36.6906 -36.6880 -36.6490
   -36.6382 -36.6333 -36.6324 -36.6219 -17.1947 -17.1881 -17.1755 -17.1738
   -17.1304 -17.0929 -17.0684 -17.0275 -16.9912 -16.9792 -16.9728 -16.9642
    10.5764  11.1574  11.9203  12.1606  12.4936  12.6715  12.6969  12.8432
    12.9846  13.1794  13.6424  13.6934  13.7673  13.8581  13.9202  13.9332
    13.9937  14.0713  14.0931  14.1330  14.2095  14.2842  14.3651  14.4049
    14.4833  14.5140  14.5256  14.5854  14.6558  14.6966  14.7060  14.7843
    14.8769  15.0791  15.7176  15.8528  15.9019  16.0636  16.1064  16.1665
    16.2758  16.2956  16.5106  16.6502  16.6731  16.7365  16.8289  16.9769
    17.0608  17.1256  17.1591  17.2318  17.3411  17.5084  17.6679  17.7767
    17.9368  18.1269

          k = 0.1111 0.5774 0.1374 (  9301 PWs)   bands (ev):

   -70.7668 -70.7484 -70.7351 -70.7332 -70.7155 -70.7022 -70.7021 -70.6950
   -40.8619 -40.8530 -40.8424 -40.8332 -37.0694 -37.0267 -36.9703 -36.9389
   -36.8736 -36.8533 -36.8480 -36.8098 -36.8071 -36.7893 -36.7741 -36.7704
   -36.7546 -36.7471 -36.7220 -36.7219 -36.7096 -36.6828 -36.6819 -36.6534
   -36.6427 -36.6327 -36.6324 -36.6262 -17.1927 -17.1864 -17.1773 -17.1739
   -17.1304 -17.1023 -17.0591 -17.0286 -16.9901 -16.9777 -16.9747 -16.9655
    10.6500  11.2077  11.6946  12.0501  12.6292  12.6801  12.7138  12.8547
    13.0370  13.2046  13.5902  13.6373  13.7788  13.8805  13.9152  13.9283
    13.9832  14.0667  14.1448  14.1459  14.1589  14.2120  14.3570  14.3760
    14.4274  14.5442  14.5461  14.5844  14.6378  14.7356  14.7988  14.8053
    15.0058  15.1724  15.7088  15.8185  15.8241  15.9925  16.1006  16.1473
    16.1850  16.2395  16.5919  16.6200  16.6711  16.7789  16.7900  16.8929
    17.0200  17.1897  17.2043  17.2789  17.3624  17.4849  17.7067  17.9152
    17.9230  18.0891

          k = 0.1111 0.5774 0.2061 (  9310 PWs)   bands (ev):

   -70.7643 -70.7526 -70.7351 -70.7342 -70.7104 -70.7022 -70.7021 -70.6976
   -40.8608 -40.8554 -40.8399 -40.8343 -37.0646 -37.0387 -36.9586 -36.9408
   -36.8685 -36.8450 -36.8435 -36.8262 -36.8149 -36.8013 -36.7740 -36.7717
   -36.7542 -36.7502 -36.7193 -36.7181 -36.6967 -36.6752 -36.6702 -36.6603
   -36.6489 -36.6361 -36.6319 -36.6305 -17.1897 -17.1838 -17.1798 -17.1750
   -17.1290 -17.1114 -17.0502 -17.0312 -16.9880 -16.9776 -16.9755 -16.9676
    10.7692  11.2327  11.5319  11.8915  12.6546  12.6727  12.8145  12.8707
    13.1301  13.2447  13.5086  13.5254  13.8308  13.9009  13.9012  13.9262
    13.9516  14.0351  14.1149  14.1842  14.1889  14.2579  14.3046  14.3614
    14.3769  14.5137  14.5682  14.5874  14.6365  14.7154  14.8649  14.8802
    15.1881  15.3142  15.6902  15.7184  15.7515  15.8894  16.0916  16.1052
    16.1200  16.1853  16.5945  16.6272  16.6729  16.7941  16.8214  16.8712
    16.9650  17.1876  17.2608  17.2896  17.4506  17.4566  17.7843  17.8889
    18.0330  18.0425

          k = 0.1111 0.5774 0.2748 (  9292 PWs)   bands (ev):

   -70.7609 -70.7569 -70.7349 -70.7346 -70.7054 -70.7021 -70.7021 -70.7011
   -40.8594 -40.8575 -40.8377 -40.8359 -37.0578 -37.0491 -36.9497 -36.9440
   -36.8585 -36.8440 -36.8386 -36.8381 -36.8178 -36.8124 -36.7735 -36.7727
   -36.7533 -36.7521 -36.7179 -36.7174 -36.6830 -36.6720 -36.6643 -36.6584
   -36.6554 -36.6455 -36.6315 -36.6312 -17.1863 -17.1829 -17.1806 -17.1774
   -17.1254 -17.1194 -17.0422 -17.0358 -16.9848 -16.9811 -16.9729 -16.9701
    10.9270  11.1063  11.5729  11.7202  12.6628  12.6687  12.8694  12.8815
    13.2447  13.2930  13.4172  13.4228  13.8705  13.8900  13.9164  13.9274
    13.9355  13.9552  14.1695  14.2137  14.2260  14.2650  14.2813  14.3229
    14.3813  14.4423  14.5891  14.6029  14.6482  14.6819  14.9113  14.9201
    15.3839  15.4550  15.6089  15.6190  15.7131  15.7764  16.0477  16.0632
    16.1323  16.1574  16.6053  16.6231  16.6973  16.7374  16.8560  16.8970
    16.9834  17.0834  17.3162  17.3459  17.4585  17.4816  17.8668  17.8684
    17.9474  17.9815

          k = 0.2222 0.3849 0.0000 (  9294 PWs)   bands (ev):

   -70.7724 -70.7486 -70.7312 -70.7297 -70.7189 -70.7021 -70.7021 -70.6934
   -40.8664 -40.8514 -40.8440 -40.8285 -37.0924 -37.0239 -36.9969 -36.9171
   -36.8913 -36.8607 -36.8532 -36.8198 -36.7939 -36.7840 -36.7675 -36.7569
   -36.7443 -36.7433 -36.7406 -36.7365 -36.6935 -36.6620 -36.6591 -36.6507
   -36.6462 -36.6436 -36.6372 -36.6224 -17.1916 -17.1915 -17.1747 -17.1705
   -17.1315 -17.0920 -17.0686 -17.0256 -16.9947 -16.9802 -16.9726 -16.9648
     9.9455  11.5904  12.0049  12.1913  12.4002  12.5596  12.6467  12.8409
    12.8682  13.1000  13.5602  13.6655  13.7268  13.7591  13.7607  13.8830
    13.9048  14.1029  14.2712  14.2736  14.3472  14.3689  14.3988  14.4154
    14.4644  14.4822  14.5480  14.6237  14.6597  14.8587  14.8827  14.9366
    15.1341  15.2619  15.6580  15.8303  15.8453  16.0196  16.1098  16.2120
    16.3764  16.4103  16.4479  16.5372  16.6644  16.6772  16.7842  17.1006
    17.1212  17.1351  17.1827  17.1896  17.3004  17.3938  17.7527  17.7803
    17.9122  17.9923

          k = 0.2222 0.3849 0.0687 (  9298 PWs)   bands (ev):

   -70.7719 -70.7498 -70.7311 -70.7299 -70.7174 -70.7021 -70.7021 -70.6939
   -40.8662 -40.8526 -40.8428 -40.8287 -37.0914 -37.0312 -36.9890 -36.9184
   -36.8901 -36.8587 -36.8523 -36.8205 -36.7948 -36.7937 -36.7664 -36.7659
   -36.7470 -36.7432 -36.7312 -36.7278 -36.6907 -36.6622 -36.6591 -36.6509
   -36.6462 -36.6446 -36.6381 -36.6239 -17.1911 -17.1907 -17.1752 -17.1706
   -17.1315 -17.0957 -17.0649 -17.0261 -16.9942 -16.9797 -16.9732 -16.9652
     9.9748  11.4562  12.0147  12.2616  12.4533  12.5621  12.5799  12.8661
    12.9050  13.1096  13.5295  13.6348  13.7216  13.7672  13.7912  13.8917
    13.9227  14.0912  14.1895  14.2406  14.3481  14.3655  14.4004  14.4067
    14.4740  14.4990  14.6165  14.6363  14.6564  14.8584  14.9408  14.9434
    15.1335  15.2626  15.6569  15.7968  15.8371  16.0075  16.1080  16.1793
    16.3015  16.3822  16.4776  16.6038  16.6200  16.6711  16.8503  17.0471
    17.0898  17.1448  17.1894  17.2842  17.2844  17.3870  17.6994  17.7319
    17.9895  18.0093

          k = 0.2222 0.3849 0.1374 (  9310 PWs)   bands (ev):

   -70.7704 -70.7528 -70.7311 -70.7304 -70.7139 -70.7022 -70.7021 -70.6954
   -40.8654 -40.8551 -40.8402 -40.8296 -37.0884 -37.0437 -36.9745 -36.9223
   -36.8864 -36.8533 -36.8496 -36.8229 -36.8128 -36.7939 -36.7798 -36.7708
   -36.7462 -36.7433 -36.7164 -36.7142 -36.6834 -36.6627 -36.6593 -36.6517
   -36.6478 -36.6457 -36.6408 -36.6283 -17.1897 -17.1884 -17.1768 -17.1714
   -17.1309 -17.1033 -17.0575 -17.0276 -16.9926 -16.9784 -16.9752 -16.9665
    10.0618  11.1905  12.0438  12.3366  12.4753  12.5669  12.5980  12.8597
    13.0111  13.1379  13.4632  13.5600  13.7271  13.7739  13.8407  13.9174
    13.9651  14.0527  14.1168  14.1505  14.3160  14.3231  14.4117  14.4499
    14.4819  14.5341  14.5982  14.6304  14.7929  14.8830  14.9409  15.0757
    15.1226  15.2920  15.6509  15.7158  15.8081  15.9627  16.0859  16.1110
    16.1852  16.3330  16.5191  16.5920  16.6750  16.6855  16.8953  17.0208
    17.0528  17.1864  17.2080  17.2657  17.3542  17.3969  17.6113  17.6901
    17.9793  18.1182

          k = 0.2222 0.3849 0.2061 (  9300 PWs)   bands (ev):

   -70.7680 -70.7568 -70.7311 -70.7308 -70.7095 -70.7022 -70.7021 -70.6979
   -40.8641 -40.8578 -40.8375 -40.8309 -37.0831 -37.0559 -36.9596 -36.9282
   -36.8794 -36.8468 -36.8457 -36.8343 -36.8216 -36.7995 -36.7875 -36.7772
   -36.7449 -36.7434 -36.7025 -36.7016 -36.6737 -36.6637 -36.6605 -36.6532
   -36.6508 -36.6453 -36.6444 -36.6346 -17.1876 -17.1850 -17.1790 -17.1733
   -17.1290 -17.1115 -17.0495 -17.0308 -16.9898 -16.9785 -16.9759 -16.9684
    10.2042  10.9042  12.0913  12.3240  12.4471  12.5654  12.7303  12.8486
    13.1245  13.1828  13.3872  13.4625  13.7489  13.7747  13.8651  13.9334
    14.0091  14.0200  14.0414  14.1540  14.2674  14.2922  14.4118  14.4437
    14.5077  14.5581  14.6045  14.6050  14.8664  14.9281  14.9856  15.1010
    15.2296  15.3670  15.6205  15.6615  15.7436  15.8727  15.9794  16.0486
    16.1518  16.2765  16.5706  16.6137  16.6775  16.7023  16.8792  16.9940
    17.0815  17.2344  17.2584  17.2670  17.3081  17.4633  17.5742  17.6496
    17.9698  18.1061

          k = 0.2222 0.3849 0.2748 (  9299 PWs)   bands (ev):

   -70.7648 -70.7609 -70.7310 -70.7309 -70.7052 -70.7021 -70.7021 -70.7012
   -40.8624 -40.8602 -40.8350 -40.8327 -37.0759 -37.0668 -36.9465 -36.9361
   -36.8685 -36.8542 -36.8415 -36.8396 -36.8202 -36.8114 -36.7864 -36.7827
   -36.7441 -36.7437 -36.6933 -36.6932 -36.6652 -36.6648 -36.6619 -36.6566
   -36.6513 -36.6483 -36.6441 -36.6408 -17.1850 -17.1825 -17.1801 -17.1765
   -17.1250 -17.1190 -17.0420 -17.0356 -16.9862 -16.9822 -16.9735 -16.9708
    10.3972  10.6340  12.1564  12.2370  12.5004  12.5452  12.8012  12.8319
    13.2412  13.2422  13.3132  13.3577  13.7699  13.7743  13.8721  13.9054
    13.9960  14.0040  14.0984  14.1554  14.2424  14.2664  14.4091  14.4216
    14.5482  14.5495  14.5848  14.6103  14.9026  14.9196  15.0654  15.0841
    15.3701  15.4316  15.6350  15.6395  15.6525  15.7447  15.9330  15.9606
    16.1853  16.2278  16.6212  16.6488  16.6577  16.6832  16.8885  16.9327
    17.1503  17.2155  17.2586  17.2710  17.3822  17.4491  17.5928  17.6171
    17.9760  18.0230

          k = 0.2222 0.5132 0.0000 (  9298 PWs)   bands (ev):

   -70.7677 -70.7424 -70.7365 -70.7296 -70.7250 -70.7022 -70.7021 -70.6927
   -40.8611 -40.8496 -40.8458 -40.8341 -37.0604 -36.9952 -36.9898 -36.9471
   -36.8996 -36.8611 -36.8552 -36.7947 -36.7835 -36.7784 -36.7677 -36.7647
   -36.7559 -36.7493 -36.7445 -36.7236 -36.6922 -36.6896 -36.6765 -36.6555
   -36.6517 -36.6444 -36.6381 -36.6202 -17.1967 -17.1884 -17.1790 -17.1765
   -17.1196 -17.0833 -17.0763 -17.0379 -16.9886 -16.9763 -16.9757 -16.9606
    10.5574  11.4949  11.9760  12.2514  12.3720  12.5936  12.6940  12.7839
    12.8063  13.1229  13.7341  13.7671  13.7887  13.8352  13.8954  13.8991
    13.9743  13.9912  14.0904  14.1583  14.1594  14.2847  14.3047  14.3863
    14.4509  14.5271  14.5532  14.5601  14.6580  14.7000  14.9014  14.9326
    14.9500  15.0582  15.6201  15.7262  15.8471  15.8473  16.0009  16.0784
    16.4650  16.4950  16.5146  16.6747  16.6859  16.6915  16.8444  16.9879
    17.0823  17.1447  17.2686  17.3090  17.3395  17.4505  17.7573  17.7962
    17.8747  18.0152

          k = 0.2222 0.5132 0.0687 (  9291 PWs)   bands (ev):

   -70.7672 -70.7434 -70.7365 -70.7322 -70.7214 -70.7021 -70.7021 -70.6933
   -40.8609 -40.8508 -40.8446 -40.8343 -37.0595 -37.0051 -36.9803 -36.9474
   -36.8975 -36.8595 -36.8540 -36.7971 -36.7878 -36.7789 -36.7754 -36.7731
   -36.7527 -36.7452 -36.7361 -36.7204 -36.6896 -36.6891 -36.6757 -36.6557
   -36.6516 -36.6454 -36.6391 -36.6217 -17.1962 -17.1876 -17.1795 -17.1762
   -17.1201 -17.0906 -17.0692 -17.0376 -16.9887 -16.9763 -16.9758 -16.9610
    10.5830  11.5080  11.8961  12.1569  12.5089  12.5568  12.6829  12.7923
    12.8588  13.1368  13.7102  13.7333  13.8077  13.8320  13.8753  13.9335
    13.9642  14.0007  14.0767  14.1352  14.1532  14.2648  14.3032  14.3465
    14.4277  14.5297  14.5824  14.6073  14.6515  14.7513  14.8835  14.9464
    14.9939  15.0809  15.6170  15.7143  15.7812  15.8970  16.0019  16.0541
    16.3772  16.4340  16.6049  16.6371  16.6843  16.7192  16.8609  16.9949
    17.0967  17.1549  17.2377  17.2785  17.3540  17.4618  17.7357  17.8069
    17.9127  18.0214

          k = 0.2222 0.5132 0.1374 (  9285 PWs)   bands (ev):

   -70.7656 -70.7466 -70.7365 -70.7345 -70.7160 -70.7021 -70.7021 -70.6949
   -40.8603 -40.8528 -40.8426 -40.8348 -37.0566 -37.0170 -36.9702 -36.9485
   -36.8912 -36.8548 -36.8505 -36.8069 -36.8008 -36.7888 -36.7781 -36.7771
   -36.7496 -36.7457 -36.7202 -36.7130 -36.6884 -36.6823 -36.6732 -36.6569
   -36.6517 -36.6481 -36.6420 -36.6262 -17.1947 -17.1857 -17.1811 -17.1758
   -17.1212 -17.1000 -17.0600 -17.0372 -16.9885 -16.9780 -16.9743 -16.9623
    10.6588  11.5159  11.7250  12.1200  12.4358  12.6025  12.7478  12.8172
    12.9663  13.1756  13.6404  13.6773  13.7874  13.8439  13.8787  13.9458
    13.9888  13.9993  14.0172  14.1150  14.1841  14.2079  14.2800  14.3214
    14.3832  14.5108  14.6210  14.6439  14.6778  14.8559  14.8749  14.9638
    15.0977  15.1674  15.6043  15.6648  15.7101  15.9196  15.9838  16.0176
    16.2584  16.3398  16.6052  16.6522  16.6852  16.7625  16.8885  17.0063
    17.1374  17.1690  17.1986  17.2296  17.3605  17.4755  17.7043  17.7918
    18.0135  18.0434

          k = 0.2222 0.5132 0.2061 (  9285 PWs)   bands (ev):

   -70.7630 -70.7509 -70.7364 -70.7356 -70.7105 -70.7021 -70.7021 -70.6975
   -40.8594 -40.8548 -40.8406 -40.8358 -37.0521 -37.0280 -36.9623 -36.9503
   -36.8802 -36.8481 -36.8457 -36.8265 -36.8091 -36.8013 -36.7782 -36.7780
   -36.7480 -36.7462 -36.7090 -36.7052 -36.6852 -36.6739 -36.6683 -36.6601
   -36.6524 -36.6509 -36.6458 -36.6331 -17.1924 -17.1838 -17.1825 -17.1758
   -17.1216 -17.1086 -17.0516 -17.0376 -16.9878 -16.9806 -16.9722 -16.9643
    10.7821  11.3668  11.7183  12.0600  12.3943  12.5542  12.8193  12.8468
    13.1260  13.2352  13.5424  13.5888  13.7855  13.8244  13.9024  13.9145
    13.9699  14.0100  14.0375  14.0935  14.1637  14.2418  14.2759  14.2988
    14.3335  14.4700  14.6261  14.6696  14.7009  14.8276  15.0022  15.0118
    15.2323  15.2964  15.5676  15.5949  15.6379  15.8394  15.9765  16.0157
    16.1704  16.2343  16.6057  16.6488  16.7131  16.7767  16.9237  17.0108
    17.1165  17.1588  17.2220  17.2604  17.3419  17.4651  17.6978  17.7614
    18.0154  18.1114

          k = 0.2222 0.5132 0.2748 (  9277 PWs)   bands (ev):

   -70.7596 -70.7555 -70.7362 -70.7360 -70.7055 -70.7021 -70.7021 -70.7011
   -40.8582 -40.8566 -40.8387 -40.8371 -37.0457 -37.0376 -36.9567 -36.9530
   -36.8651 -36.8473 -36.8414 -36.8408 -36.8142 -36.8114 -36.7783 -36.7782
   -36.7471 -36.7466 -36.7033 -36.7018 -36.6780 -36.6708 -36.6628 -36.6616
   -36.6550 -36.6532 -36.6463 -36.6411 -17.1896 -17.1866 -17.1795 -17.1771
   -17.1199 -17.1154 -17.0448 -17.0401 -16.9861 -16.9835 -16.9695 -16.9668
    10.9482  11.1489  11.8198  11.9456  12.4266  12.4895  12.8484  12.8589
    13.2805  13.3080  13.4491  13.4808  13.7962  13.8114  13.8892  13.8945
    13.9835  13.9997  14.0505  14.0681  14.1982  14.2541  14.2647  14.2901
    14.3396  14.4094  14.6337  14.6558  14.7399  14.7881  15.0690  15.0862
    15.3688  15.3998  15.5120  15.5438  15.5976  15.7085  15.9845  16.0007
    16.1411  16.1664  16.6198  16.6354  16.7421  16.7648  16.9640  16.9986
    17.0966  17.1203  17.2736  17.3003  17.3518  17.4207  17.7082  17.7304
    18.0268  18.0611

          k = 0.3333 0.5774 0.0000 (  9324 PWs)   bands (ev):

   -70.7657 -70.7388 -70.7388 -70.7297 -70.7288 -70.7022 -70.7022 -70.6925
   -40.8554 -40.8554 -40.8399 -40.8399 -37.0411 -36.9944 -36.9663 -36.9663
   -36.9190 -36.8588 -36.8588 -36.7853 -36.7853 -36.7741 -36.7741 -36.7610
   -36.7538 -36.7521 -36.7521 -36.6917 -36.6917 -36.6903 -36.6763 -36.6763
   -36.6695 -36.6413 -36.6413 -36.6196 -17.1990 -17.1829 -17.1829 -17.1815
   -17.1016 -17.1016 -17.0567 -17.0567 -16.9818 -16.9818 -16.9742 -16.9584
    10.8886  11.6285  11.6285  12.3775  12.4124  12.6351  12.6351  12.7377
    12.7377  13.0895  13.7862  13.7862  13.8602  13.8602  13.9713  13.9713
    13.9757  13.9789  14.0186  14.0186  14.1099  14.2148  14.2604  14.2604
    14.5201  14.5201  14.5312  14.5890  14.5890  14.8883  14.8883  14.9473
    14.9808  15.0629  15.6630  15.7064  15.7064  15.7474  15.7474  16.0387
    16.5560  16.5560  16.5738  16.5738  16.7948  16.7948  16.9464  16.9464
    16.9719  17.1420  17.3157  17.3872  17.3872  17.4060  17.7742  17.7742
    17.8235  17.9699

          k = 0.3333 0.5774 0.0687 (  9315 PWs)   bands (ev):

   -70.7652 -70.7388 -70.7388 -70.7356 -70.7228 -70.7021 -70.7021 -70.6930
   -40.8554 -40.8554 -40.8399 -40.8399 -37.0402 -36.9972 -36.9663 -36.9663
   -36.9144 -36.8575 -36.8575 -36.7862 -36.7862 -36.7792 -36.7788 -36.7788
   -36.7481 -36.7481 -36.7373 -36.6905 -36.6902 -36.6902 -36.6761 -36.6761
   -36.6686 -36.6425 -36.6425 -36.6212 -17.1985 -17.1824 -17.1824 -17.1820
   -17.1034 -17.1034 -17.0550 -17.0550 -16.9822 -16.9822 -16.9737 -16.9589
    10.9112  11.6469  11.6469  12.1303  12.5709  12.5709  12.6606  12.7803
    12.7803  13.1047  13.7648  13.7648  13.8902  13.8902  13.9057  13.9549
    13.9670  13.9670  14.0179  14.0179  14.1373  14.2033  14.2248  14.2248
    14.4846  14.4846  14.5474  14.6730  14.6730  14.8868  14.8868  14.9087
    15.0354  15.1012  15.6499  15.6545  15.6545  15.7989  15.7989  16.0120
    16.4599  16.4599  16.6212  16.6212  16.7978  16.7978  16.9670  16.9711
    16.9711  17.1556  17.2666  17.3828  17.3828  17.4113  17.7710  17.7710
    17.8948  17.9691

          k = 0.3333 0.5774 0.1374 (  9306 PWs)   bands (ev):

   -70.7635 -70.7417 -70.7388 -70.7388 -70.7166 -70.7021 -70.7021 -70.6947
   -40.8555 -40.8555 -40.8398 -40.8398 -37.0375 -37.0042 -36.9665 -36.9665
   -36.9027 -36.8535 -36.8535 -36.8015 -36.7931 -36.7931 -36.7829 -36.7829
   -36.7420 -36.7420 -36.7204 -36.6911 -36.6864 -36.6864 -36.6752 -36.6752
   -36.6655 -36.6459 -36.6459 -36.6257 -17.1971 -17.1836 -17.1809 -17.1809
   -17.1076 -17.1076 -17.0512 -17.0512 -16.9833 -16.9833 -16.9722 -16.9602
    10.9782  11.6994  11.6994  11.8755  12.4586  12.4586  12.8322  12.8322
    12.9181  13.1495  13.7370  13.7370  13.7711  13.8897  13.9203  13.9203
    13.9524  13.9524  14.0333  14.0333  14.1541  14.1750  14.1750  14.1779
    14.4522  14.4522  14.5903  14.7574  14.7574  14.8630  14.9264  14.9264
    15.1231  15.2029  15.5832  15.5832  15.6114  15.8617  15.8617  15.9361
    16.3351  16.3351  16.6372  16.6372  16.8045  16.8045  16.9585  17.0239
    17.0239  17.1642  17.2011  17.3666  17.3666  17.4163  17.7710  17.7710
    17.9539  17.9539

          k = 0.3333 0.5774 0.2061 (  9288 PWs)   bands (ev):

   -70.7608 -70.7474 -70.7387 -70.7387 -70.7108 -70.7021 -70.7021 -70.6974
   -40.8555 -40.8555 -40.8398 -40.8398 -37.0333 -37.0124 -36.9667 -36.9667
   -36.8861 -36.8478 -36.8478 -36.8239 -36.8037 -36.8037 -36.7835 -36.7835
   -36.7377 -36.7377 -36.7075 -36.6924 -36.6822 -36.6822 -36.6723 -36.6723
   -36.6597 -36.6514 -36.6514 -36.6328 -17.1948 -17.1861 -17.1792 -17.1792
   -17.1120 -17.1120 -17.0472 -17.0472 -16.9846 -16.9846 -16.9700 -16.9622
    11.0880  11.6371  11.7747  11.7747  12.3388  12.3388  12.8669  12.8669
    13.1567  13.2214  13.6302  13.7170  13.7170  13.7783  13.9036  13.9036
    13.9396  13.9396  14.0806  14.0806  14.1503  14.1548  14.1602  14.1602
    14.4204  14.4204  14.6465  14.7544  14.7544  14.8152  15.0514  15.0514
    15.2259  15.3367  15.5016  15.5016  15.5542  15.8217  15.9115  15.9115
    16.2281  16.2281  16.6379  16.6379  16.8110  16.8110  16.9578  17.0776
    17.0776  17.0787  17.2528  17.3379  17.3379  17.4034  17.7799  17.7799
    17.9229  17.9229

          k = 0.3333 0.5774 0.2748 (  9261 PWs)   bands (ev):

   -70.7571 -70.7526 -70.7387 -70.7387 -70.7056 -70.7021 -70.7021 -70.7011
   -40.8556 -40.8556 -40.8397 -40.8397 -37.0277 -37.0205 -36.9669 -36.9669
   -36.8668 -36.8460 -36.8426 -36.8426 -36.8117 -36.8117 -36.7834 -36.7834
   -36.7354 -36.7354 -36.6993 -36.6947 -36.6802 -36.6802 -36.6659 -36.6659
   -36.6583 -36.6583 -36.6513 -36.6417 -17.1920 -17.1890 -17.1780 -17.1780
   -17.1148 -17.1148 -17.0448 -17.0448 -16.9855 -16.9855 -16.9674 -16.9647
    11.2374  11.4222  11.8428  11.8428  12.2473  12.2473  12.8838  12.8838
    13.3104  13.3356  13.5349  13.6317  13.7056  13.7056  13.8846  13.8846
    13.9305  13.9305  14.1204  14.1204  14.1429  14.1429  14.1652  14.1652
    14.3959  14.3959  14.7056  14.7352  14.7352  14.7626  15.1723  15.1723
    15.3310  15.4102  15.4184  15.4184  15.5508  15.6834  15.9389  15.9389
    16.1676  16.1676  16.6362  16.6362  16.8149  16.8149  16.9741  17.0134
    17.1153  17.1153  17.3100  17.3100  17.3131  17.3670  17.7891  17.7891
    17.8990  17.8990

     the Fermi energy is    16.1740 ev

!    total energy              =   -3111.29402234 Ry
     estimated scf accuracy    <          9.3E-09 Ry
     smearing contrib. (-TS)   =      -0.00032256 Ry
     internal energy E=F+TS    =   -3111.29369978 Ry

     The total energy is F=E-TS. E is the sum of the following terms:
     one-electron contribution =   -1208.27939652 Ry
     hartree contribution      =     698.24103172 Ry
     xc contribution           =    -349.41148814 Ry
     ewald contribution        =   -1642.60130586 Ry
     one-center paw contrib.   =    -609.24254098 Ry

     convergence has been achieved in  32 iterations

     negative rho (up, down):  3.720E-03 0.000E+00

     Forces acting on atoms (cartesian axes, Ry/au):

     atom    1 type  1   force =    -0.01393651    0.00804625    0.00000000
     atom    2 type  1   force =     0.01393651   -0.00804625   -0.00000000
     atom    3 type  1   force =     0.00000000    0.01609249    0.00000000
     atom    4 type  1   force =     0.01393651    0.00804625    0.00000000
     atom    5 type  1   force =    -0.00000000   -0.01609249   -0.00000000
     atom    6 type  1   force =    -0.01393651   -0.00804625    0.00000000
     atom    7 type  1   force =    -0.00000000   -0.00000000    0.00000000
     atom    8 type  1   force =     0.00000000   -0.00000000    0.00000000
     atom    9 type  2   force =     0.00000000    0.00000000   -0.01090741
     atom   10 type  2   force =    -0.00000000   -0.00000000   -0.01090741
     atom   11 type  2   force =     0.00000000    0.00000000    0.01090741
     atom   12 type  2   force =     0.00000000    0.00000000    0.01090741

     Total force =     0.045052     Total SCF correction =     0.000151


     Computing stress (Cartesian axis) and pressure


     negative rho (up, down):  3.720E-03 0.000E+00
          total   stress  (Ry/bohr**3)                   (kbar)     P=     -164.58
  -0.00120617  -0.00000000   0.00000000         -177.43       -0.00        0.00
  -0.00000000  -0.00120617   0.00000000           -0.00     -177.43        0.00
   0.00000000   0.00000000  -0.00094402            0.00        0.00     -138.87


     Writing all to output data dir ./FeAl.save/ :
     XML data file, charge density, pseudopotentials, collected wavefunctions

     init_run     :      8.26s CPU      8.41s WALL (       1 calls)
     electrons    :    573.61s CPU    580.36s WALL (       1 calls)
     forces       :      2.16s CPU      2.20s WALL (       1 calls)
     stress       :      8.79s CPU      8.90s WALL (       1 calls)

     Called by init_run:
     wfcinit      :      6.80s CPU      6.88s WALL (       1 calls)
     potinit      :      0.76s CPU      0.79s WALL (       1 calls)
     hinit0       :      0.37s CPU      0.38s WALL (       1 calls)

     Called by electrons:
     c_bands      :    495.88s CPU    499.34s WALL (      32 calls)
     sum_band     :     57.85s CPU     59.27s WALL (      32 calls)
     v_of_rho     :      1.76s CPU      1.84s WALL (      33 calls)
     newd         :      7.50s CPU      8.46s WALL (      33 calls)
     PAW_pot      :     10.85s CPU     11.55s WALL (      33 calls)
     mix_rho      :      0.20s CPU      0.21s WALL (      32 calls)

     Called by c_bands:
     init_us_2    :      3.15s CPU      3.17s WALL (    4020 calls)
     cegterg      :    478.76s CPU    482.11s WALL (    1920 calls)

     Called by *egterg:
     cdiaghg      :     94.91s CPU     95.20s WALL (    8089 calls)
     h_psi        :    258.44s CPU    261.11s WALL (    8149 calls)
     s_psi        :     23.28s CPU     23.36s WALL (    8149 calls)
     g_psi        :      1.17s CPU      1.18s WALL (    6169 calls)

     Called by h_psi:
     h_psi:calbec :     32.17s CPU     32.31s WALL (    8149 calls)
     vloc_psi     :    201.35s CPU    203.79s WALL (    8149 calls)
     add_vuspsi   :     23.99s CPU     24.07s WALL (    8149 calls)

     General routines
     calbec       :     50.18s CPU     50.38s WALL (   11089 calls)
     fft          :      1.46s CPU      1.59s WALL (     452 calls)
     ffts         :      0.39s CPU      0.39s WALL (      65 calls)
     fftw         :    195.57s CPU    197.87s WALL ( 1223224 calls)
     interpolate  :      0.47s CPU      0.48s WALL (      33 calls)

     Parallel routines

     PWSCF        :    593.53s CPU    611.42s WALL


   This run was terminated on:   2:54: 5  27Oct2025            

=------------------------------------------------------------------------------=
   JOB DONE.
=------------------------------------------------------------------------------=
Note: The following floating-point exceptions are signalling: IEEE_UNDERFLOW_FLAG IEEE_DENORMAL
Note: The following floating-point exceptions are signalling: IEEE_UNDERFLOW_FLAG IEEE_DENORMAL
Note: The following floating-point exceptions are signalling: IEEE_UNDERFLOW_FLAG IEEE_DENORMAL
Note: The following floating-point exceptions are signalling: IEEE_UNDERFLOW_FLAG IEEE_DENORMAL
Note: The following floating-point exceptions are signalling: IEEE_UNDERFLOW_FLAG IEEE_DENORMAL
Note: The following floating-point exceptions are signalling: IEEE_UNDERFLOW_FLAG IEEE_DENORMAL
Note: The following floating-point exceptions are signalling: IEEE_UNDERFLOW_FLAG IEEE_DENORMAL
Note: The following floating-point exceptions are signalling: IEEE_UNDERFLOW_FLAG IEEE_DENORMAL
