
     Program PWSCF v.7.4 starts on 27Oct2025 at  2:23:40 

     This program is part of the open-source Quantum ESPRESSO suite
     for quantum simulation of materials; please cite
         "P. Giannozzi et al., J. Phys.:Condens. Matter 21 395502 (2009);
         "P. Giannozzi et al., J. Phys.:Condens. Matter 29 465901 (2017);
         "P. Giannozzi et al., J. Chem. Phys. 152 154105 (2020);
          URL http://www.quantum-espresso.org", 
     in publications or presentations arising from this work. More details at
     http://www.quantum-espresso.org/quote

     Parallel version (MPI & OpenMP), running on       8 processor cores
     Number of MPI processes:                 8
     Threads/MPI process:                     1

     MPI processes distributed on     1 nodes
     217900 MiB available memory on the printing compute node when the environment starts

     Reading input from TiFe2_kmesh_convergence/TiFe2_k555.in

     Current dimensions of program PWSCF are:
     Max number of different atomic species (ntypx) = 10
     Max number of k-points (npk) =  40000
     Max angular momentum in pseudopotentials (lmaxx) =  4
     file Fe.pbe-spn-kjpaw_psl.0.2.1.UPF: wavefunction(s)  3D renormalized

     IMPORTANT: XC functional enforced from input :
     Exchange-correlation= PBE
                           (   1   4   3   4   0   0   0)
     Any further DFT definition will be discarded
     Please, verify this is what you really want

     Message from routine setup:
     using ibrav=0 with symmetry is DISCOURAGED, use correct ibrav instead

     R & G space division:  proc/nbgrp/npool/nimage =       8
     Subspace diagonalization in iterative solution of the eigenvalue problem:
     a serial algorithm will be used


     Parallelization info
     --------------------
     sticks:   dense  smooth     PW     G-vecs:    dense   smooth      PW
     Min         563     185     52                49655     9309    1374
     Max         564     186     53                49666     9318    1379
     Sum        4507    1483    421               397277    74505   11019

     Using Slab Decomposition



     bravais-lattice index     =            0
     lattice parameter (alat)  =       9.1568  a.u.
     unit-cell volume          =    1075.5644 (a.u.)^3
     number of atoms/cell      =           12
     number of atomic types    =            2
     number of electrons       =       176.00
     number of Kohn-Sham states=          106
     kinetic-energy cutoff     =      64.0000  Ry
     charge density cutoff     =     782.0000  Ry
     scf convergence threshold =      1.0E-08
     mixing beta               =       0.7000
     number of iterations used =            8  plain     mixing
     Exchange-correlation= PBE
                           (   1   4   3   4   0   0   0)

     celldm(1)=   9.156781  celldm(2)=   0.000000  celldm(3)=   0.000000
     celldm(4)=   0.000000  celldm(5)=   0.000000  celldm(6)=   0.000000

     crystal axes: (cart. coord. in units of alat)
               a(1) = (   1.000000   0.000000   0.000000 )  
               a(2) = (  -0.500000   0.866025   0.000000 )  
               a(3) = (   0.000000   0.000000   1.617623 )  

     reciprocal axes: (cart. coord. in units 2 pi/alat)
               b(1) = (  1.000000  0.577350 -0.000000 )  
               b(2) = (  0.000000  1.154701  0.000000 )  
               b(3) = (  0.000000 -0.000000  0.618191 )  


     PseudoPot. # 1 for Fe read from file:
     ./Fe.pbe-spn-kjpaw_psl.0.2.1.UPF
     MD5 check sum: e86618425769142926afa95317d90200
     Pseudo is Projector augmented-wave + core cor, Zval = 16.0
     Generated using "atomic" code by A. Dal Corso  v.5.0.99 svn rev. 10869
     Shape of augmentation charge: PSQ
     Using radial grid of 1191 points,  6 beta functions with: 
                l(1) =   0
                l(2) =   0
                l(3) =   1
                l(4) =   1
                l(5) =   2
                l(6) =   2
     Q(r) pseudized with 0 coefficients 


     PseudoPot. # 2 for Ti read from file:
     ./Ti_pbe_v1.4.uspp.F.UPF
     MD5 check sum: 88a00a6731bd790ddea75d31a80cb452
     Pseudo is Ultrasoft + core correction, Zval = 12.0
     Generated by new atomic code, or converted to UPF format
     Using radial grid of  851 points,  6 beta functions with: 
                l(1) =   0
                l(2) =   0
                l(3) =   1
                l(4) =   1
                l(5) =   2
                l(6) =   2
     Q(r) pseudized with  6 coefficients,  rinner =    1.000   1.000   1.000
                                                       1.000   1.000

     atomic species   valence    mass     pseudopotential
     Fe               16.00    55.84500     Fe( 1.00)
     Ti               12.00    47.86700     Ti( 1.00)

     24 Sym. Ops., with inversion, found (12 have fractional translation)



   Cartesian axes

     site n.     atom                  positions (alat units)
         1        Fe     tau(   1) = (   0.7465670   0.1463196   0.4044057  )
         2        Fe     tau(   2) = (  -0.2465670   0.7197058   1.2132171  )
         3        Fe     tau(   3) = (  -0.0000000   0.2926392   1.2132171  )
         4        Fe     tau(   4) = (   0.2534330   0.1463196   0.4044057  )
         5        Fe     tau(   5) = (   0.5000000   0.5733862   0.4044057  )
         6        Fe     tau(   6) = (   0.2465670   0.7197058   1.2132171  )
         7        Fe     tau(   7) = (   0.0000000   0.0000000   0.0000000  )
         8        Fe     tau(   8) = (   0.0000000   0.0000000   0.8088114  )
         9        Ti     tau(   9) = (   0.5000000   0.2886751   1.5200090  )
        10        Ti     tau(  10) = (  -0.0000000   0.5773503   0.7111976  )
        11        Ti     tau(  11) = (  -0.0000000   0.5773503   0.0976138  )
        12        Ti     tau(  12) = (   0.5000000   0.2886751   0.9064252  )

     number of k points=    15  Marzari-Vanderbilt smearing, width (Ry)=  0.0050
                       cart. coord. in units 2pi/alat
        k(    1) = (   0.0000000   0.0000000   0.0000000), wk =   0.0160000
        k(    2) = (   0.0000000   0.0000000   0.1236382), wk =   0.0320000
        k(    3) = (   0.0000000   0.0000000   0.2472764), wk =   0.0320000
        k(    4) = (   0.0000000   0.2309401   0.0000000), wk =   0.0960000
        k(    5) = (   0.0000000   0.2309401   0.1236382), wk =   0.1920000
        k(    6) = (   0.0000000   0.2309401   0.2472764), wk =   0.1920000
        k(    7) = (   0.0000000   0.4618802   0.0000000), wk =   0.0960000
        k(    8) = (   0.0000000   0.4618802   0.1236382), wk =   0.1920000
        k(    9) = (   0.0000000   0.4618802   0.2472764), wk =   0.1920000
        k(   10) = (   0.2000000   0.3464102   0.0000000), wk =   0.0960000
        k(   11) = (   0.2000000   0.3464102   0.1236382), wk =   0.1920000
        k(   12) = (   0.2000000   0.3464102   0.2472764), wk =   0.1920000
        k(   13) = (   0.2000000   0.5773503   0.0000000), wk =   0.0960000
        k(   14) = (   0.2000000   0.5773503   0.1236382), wk =   0.1920000
        k(   15) = (   0.2000000   0.5773503   0.2472764), wk =   0.1920000

     Dense  grid:   397277 G-vectors     FFT dimensions: (  81,  81, 144)

     Smooth grid:    74505 G-vectors     FFT dimensions: (  48,  48,  80)

     Estimated max dynamical RAM per process >     226.40 MB

     Estimated total dynamical RAM >       1.77 GB

     Check: negative core charge=   -0.000017

     Initial potential from superposition of free atoms

     starting charge     171.9963, renormalised to     176.0000

     negative rho (up, down):  6.092E-03 0.000E+00
     Starting wfcs are  144 randomized atomic wfcs
     Checking if some PAW data can be deallocated... 

     total cpu time spent up to now is        3.5 secs

     per-process dynamical memory:   174.9 Mb

     Self-consistent Calculation

     iteration #  1     ecut=    64.00 Ry     beta= 0.70
     Davidson diagonalization with overlap
     ethr =  1.00E-02,  avg # of iterations =  2.0

     negative rho (up, down):  2.155E-04 0.000E+00

     total cpu time spent up to now is        8.5 secs

     total energy              =   -3017.06394633 Ry
     estimated scf accuracy    <     116.46598108 Ry

     iteration #  2     ecut=    64.00 Ry     beta= 0.70
     Davidson diagonalization with overlap
     ethr =  1.00E-02,  avg # of iterations =  6.6

     total cpu time spent up to now is       18.0 secs

     total energy              =   -3075.69874258 Ry
     estimated scf accuracy    <     699.98251573 Ry

     iteration #  3     ecut=    64.00 Ry     beta= 0.70
     Davidson diagonalization with overlap
     ethr =  1.00E-02,  avg # of iterations =  5.0

     total cpu time spent up to now is       25.5 secs

     total energy              =   -3120.89684601 Ry
     estimated scf accuracy    <      91.77388015 Ry

     iteration #  4     ecut=    64.00 Ry     beta= 0.70
     Davidson diagonalization with overlap
     ethr =  1.00E-02,  avg # of iterations =  1.5

     total cpu time spent up to now is       29.8 secs

     total energy              =   -3116.79294325 Ry
     estimated scf accuracy    <      54.23656886 Ry

     iteration #  5     ecut=    64.00 Ry     beta= 0.70
     Davidson diagonalization with overlap
     ethr =  1.00E-02,  avg # of iterations =  1.8

     negative rho (up, down):  1.066E-04 0.000E+00

     total cpu time spent up to now is       34.2 secs

     total energy              =   -3115.16107618 Ry
     estimated scf accuracy    <      43.21630957 Ry

     iteration #  6     ecut=    64.00 Ry     beta= 0.70
     Davidson diagonalization with overlap
     ethr =  1.00E-02,  avg # of iterations =  1.0

     negative rho (up, down):  4.495E-04 0.000E+00

     total cpu time spent up to now is       38.3 secs

     total energy              =   -3113.32849769 Ry
     estimated scf accuracy    <      26.61721918 Ry

     iteration #  7     ecut=    64.00 Ry     beta= 0.70
     Davidson diagonalization with overlap
     ethr =  1.00E-02,  avg # of iterations =  1.0

     negative rho (up, down):  1.039E-03 0.000E+00

     total cpu time spent up to now is       42.4 secs

     total energy              =   -3111.31099104 Ry
     estimated scf accuracy    <      17.04761216 Ry

     iteration #  8     ecut=    64.00 Ry     beta= 0.70
     Davidson diagonalization with overlap
     ethr =  9.69E-03,  avg # of iterations =  1.1

     negative rho (up, down):  1.279E-03 0.000E+00

     total cpu time spent up to now is       46.5 secs

     total energy              =   -3111.54884368 Ry
     estimated scf accuracy    <       6.04754618 Ry

     iteration #  9     ecut=    64.00 Ry     beta= 0.70
     Davidson diagonalization with overlap
     ethr =  3.44E-03,  avg # of iterations =  1.6

     negative rho (up, down):  2.421E-03 0.000E+00

     total cpu time spent up to now is       50.8 secs

     total energy              =   -3111.11980972 Ry
     estimated scf accuracy    <       5.11150459 Ry

     iteration # 10     ecut=    64.00 Ry     beta= 0.70
     Davidson diagonalization with overlap
     ethr =  2.90E-03,  avg # of iterations =  2.1

     negative rho (up, down):  5.531E-03 0.000E+00

     total cpu time spent up to now is       55.4 secs

     total energy              =   -3110.88865617 Ry
     estimated scf accuracy    <       1.27419120 Ry

     iteration # 11     ecut=    64.00 Ry     beta= 0.70
     Davidson diagonalization with overlap
     ethr =  7.24E-04,  avg # of iterations =  5.9

     negative rho (up, down):  4.200E-03 0.000E+00

     total cpu time spent up to now is       62.5 secs

     total energy              =   -3111.25052542 Ry
     estimated scf accuracy    <       9.74769625 Ry

     iteration # 12     ecut=    64.00 Ry     beta= 0.70
     Davidson diagonalization with overlap
     ethr =  7.24E-04,  avg # of iterations =  1.5

     negative rho (up, down):  1.568E-03 0.000E+00

     total cpu time spent up to now is       66.8 secs

     total energy              =   -3110.79226633 Ry
     estimated scf accuracy    <       2.47497484 Ry

     iteration # 13     ecut=    64.00 Ry     beta= 0.70
     Davidson diagonalization with overlap
     ethr =  7.24E-04,  avg # of iterations =  5.3

     negative rho (up, down):  3.123E-03 0.000E+00

     total cpu time spent up to now is       73.2 secs

     total energy              =   -3111.20341531 Ry
     estimated scf accuracy    <       3.84763925 Ry

     iteration # 14     ecut=    64.00 Ry     beta= 0.70
     Davidson diagonalization with overlap
     ethr =  7.24E-04,  avg # of iterations =  2.1

     negative rho (up, down):  3.329E-03 0.000E+00

     total cpu time spent up to now is       77.7 secs

     total energy              =   -3111.27950602 Ry
     estimated scf accuracy    <       0.63081634 Ry

     iteration # 15     ecut=    64.00 Ry     beta= 0.70
     Davidson diagonalization with overlap
     ethr =  3.58E-04,  avg # of iterations =  1.5

     negative rho (up, down):  3.476E-03 0.000E+00

     total cpu time spent up to now is       82.0 secs

     total energy              =   -3111.28452082 Ry
     estimated scf accuracy    <       0.24740462 Ry

     iteration # 16     ecut=    64.00 Ry     beta= 0.70
     Davidson diagonalization with overlap
     ethr =  1.41E-04,  avg # of iterations =  3.5

     negative rho (up, down):  3.595E-03 0.000E+00

     total cpu time spent up to now is       86.7 secs

     total energy              =   -3111.28524089 Ry
     estimated scf accuracy    <       0.12411726 Ry

     iteration # 17     ecut=    64.00 Ry     beta= 0.70
     Davidson diagonalization with overlap
     ethr =  7.05E-05,  avg # of iterations =  4.0

     negative rho (up, down):  3.579E-03 0.000E+00

     total cpu time spent up to now is       91.7 secs

     total energy              =   -3111.29134836 Ry
     estimated scf accuracy    <       0.02550942 Ry

     iteration # 18     ecut=    64.00 Ry     beta= 0.70
     Davidson diagonalization with overlap
     ethr =  1.45E-05,  avg # of iterations =  6.3

     negative rho (up, down):  3.690E-03 0.000E+00

     total cpu time spent up to now is       97.5 secs

     total energy              =   -3111.29216462 Ry
     estimated scf accuracy    <       0.01255850 Ry

     iteration # 19     ecut=    64.00 Ry     beta= 0.70
     Davidson diagonalization with overlap
     ethr =  7.14E-06,  avg # of iterations =  3.9

     negative rho (up, down):  3.687E-03 0.000E+00

     total cpu time spent up to now is      102.4 secs

     total energy              =   -3111.29314181 Ry
     estimated scf accuracy    <       0.00008452 Ry

     iteration # 20     ecut=    64.00 Ry     beta= 0.70
     Davidson diagonalization with overlap
     ethr =  4.80E-08,  avg # of iterations =  6.2

     negative rho (up, down):  3.698E-03 0.000E+00

     total cpu time spent up to now is      111.0 secs

     total energy              =   -3111.29333418 Ry
     estimated scf accuracy    <       0.00005243 Ry

     iteration # 21     ecut=    64.00 Ry     beta= 0.70
     Davidson diagonalization with overlap
     ethr =  2.98E-08,  avg # of iterations =  2.6

     negative rho (up, down):  3.730E-03 0.000E+00

     total cpu time spent up to now is      115.8 secs

     total energy              =   -3111.29331135 Ry
     estimated scf accuracy    <       0.00021607 Ry

     iteration # 22     ecut=    64.00 Ry     beta= 0.70
     Davidson diagonalization with overlap
     ethr =  2.98E-08,  avg # of iterations =  5.5

     negative rho (up, down):  3.718E-03 0.000E+00

     total cpu time spent up to now is      122.2 secs

     total energy              =   -3111.29332837 Ry
     estimated scf accuracy    <       0.00027669 Ry

     iteration # 23     ecut=    64.00 Ry     beta= 0.70
     Davidson diagonalization with overlap
     ethr =  2.98E-08,  avg # of iterations =  3.0

     negative rho (up, down):  3.720E-03 0.000E+00

     total cpu time spent up to now is      127.0 secs

     total energy              =   -3111.29334145 Ry
     estimated scf accuracy    <       0.00000183 Ry

     iteration # 24     ecut=    64.00 Ry     beta= 0.70
     Davidson diagonalization with overlap
     ethr =  1.04E-09,  avg # of iterations =  5.4

     negative rho (up, down):  3.720E-03 0.000E+00

     total cpu time spent up to now is      133.5 secs

     total energy              =   -3111.29334232 Ry
     estimated scf accuracy    <       0.00000024 Ry

     iteration # 25     ecut=    64.00 Ry     beta= 0.70
     Davidson diagonalization with overlap
     ethr =  1.39E-10,  avg # of iterations =  4.7

     negative rho (up, down):  3.720E-03 0.000E+00

     total cpu time spent up to now is      139.8 secs

     total energy              =   -3111.29334235 Ry
     estimated scf accuracy    <       0.00000065 Ry

     iteration # 26     ecut=    64.00 Ry     beta= 0.70
     Davidson diagonalization with overlap
     ethr =  1.39E-10,  avg # of iterations =  1.2

     negative rho (up, down):  3.721E-03 0.000E+00

     total cpu time spent up to now is      144.0 secs

     total energy              =   -3111.29334234 Ry
     estimated scf accuracy    <       0.00000022 Ry

     iteration # 27     ecut=    64.00 Ry     beta= 0.70
     Davidson diagonalization with overlap
     ethr =  1.28E-10,  avg # of iterations =  1.9

     negative rho (up, down):  3.721E-03 0.000E+00

     total cpu time spent up to now is      148.4 secs

     total energy              =   -3111.29334235 Ry
     estimated scf accuracy    <       0.00000001 Ry

     iteration # 28     ecut=    64.00 Ry     beta= 0.70
     Davidson diagonalization with overlap
     ethr =  7.75E-12,  avg # of iterations =  4.5

     negative rho (up, down):  3.721E-03 0.000E+00

     total cpu time spent up to now is      153.9 secs

     End of self-consistent calculation

          k = 0.0000 0.0000 0.0000 (  9343 PWs)   bands (ev):

   -70.7898 -70.7687 -70.7274 -70.7061 -70.7057 -70.7057 -70.7056 -70.7056
   -40.8826 -40.8684 -40.8331 -40.8178 -37.1927 -37.1241 -37.0044 -36.8933
   -36.8933 -36.8745 -36.8745 -36.8493 -36.8493 -36.7885 -36.7835 -36.7374
   -36.7374 -36.7354 -36.7354 -36.6443 -36.6443 -36.6364 -36.6343 -36.6343
   -36.6333 -36.6333 -36.6217 -36.6216 -17.1744 -17.1744 -17.1603 -17.1603
   -17.1584 -17.1568 -17.0178 -17.0148 -17.0011 -17.0011 -16.9865 -16.9865
     8.6212  10.6526  11.4296  12.0171  12.5104  12.6044  12.7674  12.7674
    12.9882  12.9882  13.2020  13.2942  13.3872  13.3872  13.8285  13.8285
    13.9675  13.9675  14.2107  14.2952  14.2952  14.3237  14.3237  14.7802
    14.7802  14.9155  15.3961  15.3961  15.5150  15.5150  15.8310  15.9091
    15.9091  15.9146  15.9146  16.0584  16.0584  16.0727  16.0736  16.1340
    16.1609  16.1609  16.2351  16.2775  16.2775  16.7311  16.7311  16.7574
    16.9919  16.9919  17.2882  17.2882  17.4895  17.4895  17.5056  17.5060
    17.7855  17.7855

          k = 0.0000 0.0000 0.1236 (  9290 PWs)   bands (ev):

   -70.7883 -70.7715 -70.7245 -70.7075 -70.7056 -70.7056 -70.7056 -70.7056
   -40.8816 -40.8703 -40.8312 -40.8189 -37.1881 -37.1351 -36.9860 -36.8922
   -36.8922 -36.8787 -36.8787 -36.8400 -36.8400 -36.8395 -36.7665 -36.7665
   -36.7365 -36.7072 -36.7072 -36.6482 -36.6482 -36.6432 -36.6345 -36.6345
   -36.6337 -36.6337 -36.6215 -36.6214 -17.1731 -17.1731 -17.1618 -17.1618
   -17.1579 -17.1566 -17.0178 -17.0154 -16.9996 -16.9996 -16.9878 -16.9878
     8.7317  10.1965  11.7938  12.0181  12.3985  12.7864  12.7864  12.8485
    12.9632  12.9632  13.0116  13.4101  13.4252  13.4252  13.7933  13.7933
    13.9471  13.9471  14.1637  14.1637  14.3097  14.5027  14.5027  14.8574
    14.8574  14.9659  15.2929  15.2929  15.3977  15.3977  15.6673  15.7888
    15.9285  15.9285  16.0348  16.0348  16.0630  16.0630  16.0785  16.1281
    16.1770  16.1770  16.1971  16.1971  16.4141  16.8200  16.8200  16.9768
    16.9768  17.0562  17.2760  17.2760  17.4969  17.4969  17.5057  17.5059
    17.7616  17.7616

          k = 0.0000 0.0000 0.2473 (  9308 PWs)   bands (ev):

   -70.7839 -70.7777 -70.7182 -70.7119 -70.7056 -70.7056 -70.7056 -70.7056
   -40.8786 -40.8744 -40.8267 -40.8222 -37.1757 -37.1565 -36.9449 -36.8938
   -36.8896 -36.8896 -36.8851 -36.8851 -36.8206 -36.8206 -36.7953 -36.7953
   -36.6946 -36.6812 -36.6812 -36.6629 -36.6609 -36.6609 -36.6345 -36.6345
   -36.6342 -36.6342 -36.6216 -36.6215 -17.1698 -17.1698 -17.1654 -17.1654
   -17.1570 -17.1565 -17.0176 -17.0167 -16.9958 -16.9958 -16.9913 -16.9913
     9.0552   9.5648  12.0129  12.0210  12.5401  12.7863  12.8373  12.8373
    12.9039  12.9039  13.1590  13.3776  13.5265  13.5265  13.6663  13.6663
    13.9764  13.9764  14.0544  14.0544  14.6449  14.7426  14.7426  14.9556
    14.9556  15.0428  15.1176  15.1176  15.2287  15.2287  15.3408  15.4173
    15.9716  15.9716  16.0131  16.0131  16.0717  16.0717  16.0920  16.0920
    16.0937  16.1126  16.4347  16.4347  16.7323  16.7323  16.7498  17.0696
    17.0696  17.2126  17.2126  17.2787  17.5058  17.5786  17.5786  17.6884
    17.6884  17.7094

          k = 0.0000 0.2309 0.0000 (  9322 PWs)   bands (ev):

   -70.7847 -70.7635 -70.7273 -70.7192 -70.7108 -70.7057 -70.7056 -70.6976
   -40.8787 -40.8642 -40.8375 -40.8220 -37.1621 -37.0939 -37.0007 -36.8926
   -36.8814 -36.8736 -36.8543 -36.8526 -36.8491 -36.7847 -36.7793 -36.7452
   -36.7390 -36.7382 -36.7354 -36.6700 -36.6623 -36.6576 -36.6476 -36.6378
   -36.6333 -36.6299 -36.6294 -36.6279 -17.1911 -17.1804 -17.1658 -17.1621
   -17.1543 -17.1301 -17.0395 -17.0090 -17.0084 -16.9954 -16.9807 -16.9768
     9.0023  10.9413  11.6819  12.1660  12.5643  12.5933  12.6600  12.8311
    12.9156  13.1284  13.2185  13.4236  13.4654  13.5183  13.7610  13.9035
    13.9628  14.1144  14.2223  14.2800  14.3271  14.3296  14.3948  14.5803
    14.6295  14.6856  14.9106  15.1332  15.1353  15.2291  15.4028  15.4547
    15.6747  15.8084  15.8807  15.9026  16.0415  16.0839  16.1286  16.1592
    16.2094  16.2629  16.4023  16.4059  16.5544  16.7221  16.7381  16.8392
    16.9231  17.0961  17.2164  17.2242  17.3069  17.5362  17.5793  17.5956
    17.6094  17.9766

          k = 0.0000 0.2309 0.1236 (  9302 PWs)   bands (ev):

   -70.7832 -70.7664 -70.7254 -70.7194 -70.7098 -70.7056 -70.7056 -70.6989
   -40.8777 -40.8663 -40.8353 -40.8231 -37.1579 -37.1059 -36.9828 -36.8929
   -36.8862 -36.8728 -36.8607 -36.8452 -36.8364 -36.8288 -36.7721 -36.7658
   -36.7377 -36.7150 -36.7087 -36.6699 -36.6614 -36.6595 -36.6472 -36.6416
   -36.6368 -36.6345 -36.6288 -36.6278 -17.1888 -17.1791 -17.1673 -17.1665
   -17.1505 -17.1321 -17.0375 -17.0167 -17.0005 -16.9939 -16.9820 -16.9787
     9.1089  10.5119  12.0150  12.1698  12.4549  12.6279  12.7538  12.8612
    12.9847  13.1137  13.1675  13.3743  13.5122  13.5438  13.7579  13.8832
    13.9285  14.0634  14.1060  14.2125  14.3478  14.4730  14.5522  14.6607
    14.6816  14.7485  14.9393  15.0808  15.0827  15.2115  15.3931  15.4758
    15.5914  15.7713  15.8095  15.8717  15.9918  16.0180  16.1265  16.1428
    16.1918  16.2774  16.3542  16.4456  16.5591  16.7358  16.7406  16.8625
    17.0056  17.1868  17.2421  17.2532  17.2884  17.4778  17.5694  17.5857
    17.7282  17.9396

          k = 0.0000 0.2309 0.2473 (  9314 PWs)   bands (ev):

   -70.7788 -70.7726 -70.7222 -70.7202 -70.7068 -70.7056 -70.7056 -70.7025
   -40.8749 -40.8706 -40.8307 -40.8262 -37.1460 -37.1274 -36.9452 -36.9089
   -36.8838 -36.8709 -36.8676 -36.8670 -36.8253 -36.8173 -36.8002 -36.7933
   -36.7051 -36.6974 -36.6846 -36.6676 -36.6675 -36.6594 -36.6518 -36.6462
   -36.6459 -36.6425 -36.6282 -36.6280 -17.1826 -17.1756 -17.1744 -17.1711
   -17.1440 -17.1373 -17.0321 -17.0247 -16.9920 -16.9901 -16.9855 -16.9842
     9.4205   9.9097  12.1680  12.1940  12.5474  12.6450  12.8256  12.9441
    12.9827  13.0581  13.1902  13.3334  13.5644  13.6248  13.6626  13.7715
    13.9651  14.0301  14.0517  14.1137  14.4867  14.6730  14.7307  14.7606
    14.8115  14.8290  14.9186  14.9701  15.0574  15.1352  15.2640  15.3400
    15.6302  15.7770  15.7825  15.8381  15.8890  15.9595  15.9764  16.0232
    16.2355  16.3112  16.3723  16.5463  16.6230  16.6421  16.7005  16.7822
    17.1172  17.2019  17.2749  17.3154  17.3960  17.5180  17.5405  17.6773
    17.6963  17.8352

          k = 0.0000 0.4619 0.0000 (  9274 PWs)   bands (ev):

   -70.7735 -70.7518 -70.7340 -70.7273 -70.7225 -70.7056 -70.7056 -70.6939
   -40.8695 -40.8545 -40.8474 -40.8318 -37.0980 -37.0311 -36.9946 -36.9210
   -36.8720 -36.8606 -36.8490 -36.8294 -36.7988 -36.7874 -36.7713 -36.7538
   -36.7513 -36.7431 -36.7356 -36.7324 -36.7085 -36.6945 -36.6855 -36.6455
   -36.6333 -36.6331 -36.6292 -36.6201 -17.1981 -17.1895 -17.1738 -17.1730
   -17.1421 -17.1005 -17.0677 -17.0222 -16.9979 -16.9869 -16.9720 -16.9719
    10.0315  11.4242  11.8470  12.2373  12.3238  12.6052  12.7387  12.9535
    12.9859  13.1521  13.6001  13.6249  13.6584  13.7470  13.8248  13.9404
    14.0435  14.0814  14.1721  14.2390  14.3308  14.3835  14.3926  14.4700
    14.4889  14.5194  14.5722  14.6044  14.6706  14.7121  14.7447  14.7578
    14.9589  15.2125  15.7184  16.0410  16.0683  16.1319  16.1694  16.2319
    16.2554  16.2575  16.3283  16.6843  16.6911  16.7748  16.7867  16.7981
    16.8852  17.0297  17.1108  17.3719  17.4617  17.5688  17.6164  17.6473
    17.7806  18.2779

          k = 0.0000 0.4619 0.1236 (  9298 PWs)   bands (ev):

   -70.7720 -70.7547 -70.7339 -70.7306 -70.7164 -70.7056 -70.7056 -70.6957
   -40.8687 -40.8577 -40.8441 -40.8327 -37.0946 -37.0466 -36.9766 -36.9235
   -36.8735 -36.8510 -36.8466 -36.8306 -36.8105 -36.7970 -36.7836 -36.7608
   -36.7527 -36.7487 -36.7217 -36.7138 -36.7089 -36.6841 -36.6807 -36.6502
   -36.6398 -36.6305 -36.6292 -36.6254 -17.1954 -17.1881 -17.1754 -17.1744
   -17.1410 -17.1088 -17.0595 -17.0249 -16.9953 -16.9854 -16.9742 -16.9734
    10.1239  11.2530  11.7047  12.2259  12.5310  12.6485  12.7423  12.8939
    13.0328  13.1850  13.5167  13.5506  13.7326  13.7960  13.8513  13.9290
    14.0215  14.0742  14.1215  14.2019  14.2928  14.3085  14.3866  14.4416
    14.5207  14.5496  14.6021  14.6305  14.7008  14.7733  14.8193  14.8446
    15.0092  15.2679  15.7206  15.9143  15.9815  16.0718  16.0725  16.1285
    16.2211  16.2699  16.4764  16.6591  16.7193  16.7399  16.7587  16.7823
    16.8421  17.1527  17.2723  17.2986  17.3930  17.4025  17.7121  17.7954
    17.9241  18.1939

          k = 0.0000 0.4619 0.2473 (  9303 PWs)   bands (ev):

   -70.7675 -70.7610 -70.7336 -70.7328 -70.7078 -70.7056 -70.7056 -70.7005
   -40.8663 -40.8624 -40.8393 -40.8353 -37.0844 -37.0679 -36.9504 -36.9320
   -36.8660 -36.8436 -36.8407 -36.8346 -36.8315 -36.8080 -36.7910 -36.7789
   -36.7497 -36.7486 -36.7130 -36.7099 -36.6862 -36.6672 -36.6651 -36.6612
   -36.6517 -36.6404 -36.6296 -36.6293 -17.1883 -17.1843 -17.1799 -17.1795
   -17.1349 -17.1231 -17.0455 -17.0330 -16.9884 -16.9815 -16.9804 -16.9769
    10.3915  10.8006  11.8068  12.0174  12.7173  12.7446  12.7800  12.8485
    13.1649  13.2498  13.3550  13.3826  13.8369  13.8715  13.8750  13.9084
    13.9571  14.0137  14.1106  14.2053  14.2654  14.3079  14.3573  14.4147
    14.5172  14.5316  14.5817  14.6758  14.7543  14.8527  14.8744  14.9193
    15.3135  15.4752  15.6549  15.7264  15.8153  15.8823  15.9183  15.9732
    16.2631  16.2826  16.5523  16.6069  16.6801  16.6826  16.8000  16.8307
    16.9176  17.1093  17.2174  17.2918  17.5151  17.5793  17.6800  17.9106
    17.9260  18.0927

          k = 0.2000 0.3464 0.0000 (  9310 PWs)   bands (ev):

   -70.7762 -70.7547 -70.7309 -70.7273 -70.7197 -70.7056 -70.7056 -70.6945
   -40.8718 -40.8569 -40.8450 -40.8294 -37.1107 -37.0438 -36.9959 -36.9105
   -36.8934 -36.8585 -36.8507 -36.8347 -36.8110 -36.7870 -36.7685 -36.7545
   -36.7432 -36.7424 -36.7381 -36.7280 -36.6930 -36.6627 -36.6584 -36.6504
   -36.6468 -36.6413 -36.6350 -36.6220 -17.1949 -17.1921 -17.1757 -17.1706
   -17.1397 -17.1023 -17.0649 -17.0239 -17.0000 -16.9859 -16.9748 -16.9706
     9.7143  11.4440  12.0871  12.1276  12.4688  12.5223  12.6305  12.8633
    12.9186  13.0711  13.4848  13.6059  13.6824  13.7071  13.7210  13.8958
    13.9249  14.1418  14.2602  14.3060  14.3570  14.3578  14.4336  14.4677
    14.4678  14.5158  14.5387  14.6775  14.7423  14.9601  14.9814  14.9826
    15.2159  15.3487  15.6941  15.8375  15.8881  16.0483  16.1487  16.2557
    16.3124  16.3736  16.4347  16.5720  16.6160  16.6413  16.8354  16.9818
    17.0516  17.1446  17.1645  17.2236  17.3033  17.3615  17.7728  17.7759
    17.8623  17.9719

          k = 0.2000 0.3464 0.1236 (  9298 PWs)   bands (ev):

   -70.7746 -70.7575 -70.7308 -70.7288 -70.7153 -70.7056 -70.7055 -70.6961
   -40.8709 -40.8596 -40.8422 -40.8303 -37.1071 -37.0581 -36.9783 -36.9152
   -36.8902 -36.8523 -36.8488 -36.8347 -36.8147 -36.8087 -36.7766 -36.7693
   -36.7450 -36.7370 -36.7172 -36.7130 -36.6849 -36.6630 -36.6580 -36.6511
   -36.6469 -36.6445 -36.6381 -36.6269 -17.1923 -17.1906 -17.1773 -17.1720
   -17.1385 -17.1092 -17.0581 -17.0265 -16.9974 -16.9844 -16.9770 -16.9720
     9.8122  11.0751  12.1468  12.3299  12.4887  12.5363  12.5613  12.9125
    13.0062  13.0959  13.4075  13.5247  13.6905  13.7289  13.7725  13.9217
    13.9515  14.0686  14.1840  14.2016  14.2987  14.3520  14.4481  14.4704
    14.5210  14.5399  14.7000  14.7202  14.8152  14.9482  14.9595  15.1017
    15.1946  15.3647  15.6851  15.7405  15.8516  15.9960  16.1412  16.1423
    16.1770  16.3288  16.4687  16.5877  16.6709  16.6742  16.8656  16.9647
    17.0046  17.1953  17.2184  17.2788  17.3301  17.3587  17.6070  17.7174
    17.9331  18.0500

          k = 0.2000 0.3464 0.2473 (  9280 PWs)   bands (ev):

   -70.7702 -70.7639 -70.7306 -70.7301 -70.7077 -70.7056 -70.7056 -70.7008
   -40.8683 -40.8643 -40.8373 -40.8331 -37.0964 -37.0794 -36.9498 -36.9280
   -36.8779 -36.8532 -36.8445 -36.8418 -36.8263 -36.8051 -36.8001 -36.7871
   -36.7391 -36.7370 -36.6943 -36.6930 -36.6677 -36.6638 -36.6595 -36.6546
   -36.6506 -36.6453 -36.6449 -36.6391 -17.1868 -17.1857 -17.1813 -17.1773
   -17.1328 -17.1219 -17.0456 -17.0341 -16.9908 -16.9831 -16.9802 -16.9756
    10.0971  10.5400  12.2083  12.3217  12.4992  12.5524  12.7683  12.8760
    13.1648  13.1900  13.2814  13.3669  13.7309  13.7325  13.8200  13.9097
    14.0040  14.0198  14.0884  14.1617  14.2882  14.2902  14.4664  14.5080
    14.5607  14.5774  14.7348  14.7381  14.9398  14.9461  15.0362  15.1310
    15.3394  15.4588  15.6345  15.6917  15.7353  15.8206  15.9185  15.9731
    16.1882  16.2636  16.5840  16.6134  16.6616  16.6800  16.8236  16.8994
    17.1190  17.2491  17.2652  17.2836  17.3692  17.4613  17.5542  17.6297
    17.8981  17.9929

          k = 0.2000 0.5774 0.0000 (  9290 PWs)   bands (ev):

   -70.7682 -70.7453 -70.7401 -70.7291 -70.7273 -70.7056 -70.7056 -70.6932
   -40.8638 -40.8534 -40.8485 -40.8378 -37.0617 -36.9927 -36.9914 -36.9557
   -36.9010 -36.8599 -36.8531 -36.7931 -36.7891 -36.7837 -36.7737 -36.7646
   -36.7538 -36.7495 -36.7427 -36.7186 -36.7116 -36.6901 -36.6898 -36.6551
   -36.6530 -36.6435 -36.6360 -36.6181 -17.2002 -17.1909 -17.1822 -17.1795
   -17.1233 -17.0864 -17.0796 -17.0407 -16.9911 -16.9799 -16.9784 -16.9640
    10.6870  11.2894  12.1119  12.1903  12.3906  12.5779  12.7016  12.7795
    12.8551  13.1286  13.7407  13.7483  13.7967  13.8958  13.8989  13.9322
    13.9859  14.0022  14.0364  14.1003  14.1394  14.2431  14.3336  14.3577
    14.4963  14.5314  14.5398  14.5558  14.6562  14.7360  14.8482  14.8934
    14.8952  15.0317  15.6580  15.7287  15.7927  15.8944  16.0364  16.0691
    16.4454  16.4745  16.5082  16.6641  16.6934  16.8047  16.8424  16.8938
    17.0686  17.1449  17.2497  17.3106  17.3228  17.4733  17.7533  17.7881
    17.9548  18.0584

          k = 0.2000 0.5774 0.1236 (  9300 PWs)   bands (ev):

   -70.7665 -70.7477 -70.7401 -70.7362 -70.7179 -70.7056 -70.7056 -70.6949
   -40.8632 -40.8557 -40.8462 -40.8384 -37.0585 -37.0146 -36.9723 -36.9560
   -36.8944 -36.8548 -36.8494 -36.8023 -36.7992 -36.7877 -36.7842 -36.7815
   -36.7513 -36.7451 -36.7253 -36.7156 -36.7049 -36.6844 -36.6822 -36.6560
   -36.6531 -36.6468 -36.6394 -36.6233 -17.1985 -17.1887 -17.1840 -17.1788
   -17.1247 -17.1015 -17.0649 -17.0400 -16.9911 -16.9803 -16.9783 -16.9655
    10.7647  11.3486  11.8269  12.0761  12.4730  12.6120  12.7389  12.8345
    12.9423  13.1725  13.6751  13.7030  13.8256  13.8434  13.8576  13.9311
    13.9935  14.0079  14.0328  14.1207  14.1723  14.1813  14.2729  14.2761
    14.4103  14.5344  14.6136  14.6345  14.6968  14.8157  14.8436  14.8799
    15.0452  15.1430  15.6372  15.7017  15.7027  15.9296  15.9957  16.0367
    16.2766  16.3450  16.6212  16.6438  16.6766  16.8406  16.8641  16.8779
    17.1303  17.1802  17.2045  17.2372  17.3536  17.4806  17.7342  17.8900
    17.9447  18.0298

          k = 0.2000 0.5774 0.2473 (  9289 PWs)   bands (ev):

   -70.7617 -70.7545 -70.7398 -70.7391 -70.7080 -70.7056 -70.7056 -70.7001
   -40.8615 -40.8589 -40.8428 -40.8401 -37.0494 -37.0344 -36.9610 -36.9571
   -36.8725 -36.8427 -36.8414 -36.8385 -36.8112 -36.8075 -36.7843 -36.7838
   -36.7490 -36.7474 -36.7141 -36.7130 -36.6857 -36.6738 -36.6642 -36.6612
   -36.6540 -36.6520 -36.6462 -36.6371 -17.1941 -17.1886 -17.1835 -17.1792
   -17.1245 -17.1164 -17.0503 -17.0417 -16.9894 -16.9850 -16.9742 -16.9693
    10.9880  11.3077  11.6328  11.8739  12.4615  12.5501  12.8487  12.8701
    13.2197  13.2755  13.5029  13.5320  13.8144  13.8230  13.9043  13.9239
    13.9330  13.9705  14.0835  14.1172  14.1677  14.1932  14.2438  14.2969
    14.3247  14.4598  14.6541  14.6576  14.6949  14.7515  15.0104  15.0238
    15.3119  15.3772  15.5425  15.5807  15.6047  15.7672  16.0054  16.0313
    16.1404  16.1577  16.6147  16.6320  16.7297  16.7829  16.9331  16.9677
    17.0851  17.1078  17.2806  17.2837  17.4041  17.4070  17.7441  17.7981
    18.0161  18.0643

     the Fermi energy is    16.1668 ev

!    total energy              =   -3111.29334235 Ry
     estimated scf accuracy    <          3.3E-10 Ry
     smearing contrib. (-TS)   =      -0.00016944 Ry
     internal energy E=F+TS    =   -3111.29317291 Ry

     The total energy is F=E-TS. E is the sum of the following terms:
     one-electron contribution =   -1208.26246039 Ry
     hartree contribution      =     698.22129425 Ry
     xc contribution           =    -349.40773713 Ry
     ewald contribution        =   -1642.60130586 Ry
     one-center paw contrib.   =    -609.24296378 Ry

     convergence has been achieved in  28 iterations

     negative rho (up, down):  3.721E-03 0.000E+00

     Forces acting on atoms (cartesian axes, Ry/au):

     atom    1 type  1   force =    -0.01392059    0.00803706   -0.00000000
     atom    2 type  1   force =     0.01392059   -0.00803706    0.00000000
     atom    3 type  1   force =     0.00000000    0.01607411   -0.00000000
     atom    4 type  1   force =     0.01392059    0.00803706    0.00000000
     atom    5 type  1   force =    -0.00000000   -0.01607411    0.00000000
     atom    6 type  1   force =    -0.01392059   -0.00803706    0.00000000
     atom    7 type  1   force =    -0.00000000   -0.00000000    0.00000000
     atom    8 type  1   force =     0.00000000    0.00000000    0.00000000
     atom    9 type  2   force =     0.00000000   -0.00000000   -0.01067121
     atom   10 type  2   force =     0.00000000    0.00000000   -0.01067121
     atom   11 type  2   force =    -0.00000000   -0.00000000    0.01067121
     atom   12 type  2   force =     0.00000000    0.00000000    0.01067121

     Total force =     0.044786     Total SCF correction =     0.000008


     Computing stress (Cartesian axis) and pressure


     negative rho (up, down):  3.721E-03 0.000E+00
          total   stress  (Ry/bohr**3)                   (kbar)     P=     -164.46
  -0.00120497  -0.00000000   0.00000000         -177.26       -0.00        0.00
  -0.00000000  -0.00120497   0.00000000           -0.00     -177.26        0.00
   0.00000000   0.00000000  -0.00094398            0.00        0.00     -138.86


     Writing all to output data dir ./FeAl.save/ :
     XML data file, charge density, pseudopotentials, collected wavefunctions

     init_run     :      3.15s CPU      3.26s WALL (       1 calls)
     electrons    :    147.23s CPU    150.59s WALL (       1 calls)
     forces       :      0.91s CPU      0.95s WALL (       1 calls)
     stress       :      4.36s CPU      4.46s WALL (       1 calls)

     Called by init_run:
     wfcinit      :      1.69s CPU      1.72s WALL (       1 calls)
     potinit      :      0.76s CPU      0.80s WALL (       1 calls)
     hinit0       :      0.37s CPU      0.38s WALL (       1 calls)

     Called by electrons:
     c_bands      :    110.70s CPU    111.54s WALL (      28 calls)
     sum_band     :     19.04s CPU     19.90s WALL (      28 calls)
     v_of_rho     :      1.54s CPU      1.61s WALL (      29 calls)
     newd         :      6.71s CPU      7.53s WALL (      29 calls)
     PAW_pot      :      9.54s CPU     10.18s WALL (      29 calls)
     mix_rho      :      0.17s CPU      0.18s WALL (      28 calls)

     Called by c_bands:
     init_us_2    :      0.70s CPU      0.71s WALL (     885 calls)
     cegterg      :    106.88s CPU    107.69s WALL (     420 calls)

     Called by *egterg:
     cdiaghg      :     21.73s CPU     21.81s WALL (    1811 calls)
     h_psi        :     56.87s CPU     57.51s WALL (    1826 calls)
     s_psi        :      5.08s CPU      5.10s WALL (    1826 calls)
     g_psi        :      0.26s CPU      0.26s WALL (    1391 calls)

     Called by h_psi:
     h_psi:calbec :      7.29s CPU      7.32s WALL (    1826 calls)
     vloc_psi     :     44.13s CPU     44.70s WALL (    1826 calls)
     add_vuspsi   :      5.27s CPU      5.30s WALL (    1826 calls)

     General routines
     calbec       :     11.56s CPU     11.61s WALL (    2501 calls)
     fft          :      1.29s CPU      1.42s WALL (     400 calls)
     ffts         :      0.39s CPU      0.39s WALL (      57 calls)
     fftw         :     42.73s CPU     43.27s WALL (  270078 calls)
     interpolate  :      0.45s CPU      0.46s WALL (      29 calls)

     Parallel routines

     PWSCF        :    155.99s CPU    162.55s WALL


   This run was terminated on:   2:26:23  27Oct2025            

=------------------------------------------------------------------------------=
   JOB DONE.
=------------------------------------------------------------------------------=
Note: The following floating-point exceptions are signalling: IEEE_UNDERFLOW_FLAG IEEE_DENORMAL
Note: The following floating-point exceptions are signalling: IEEE_UNDERFLOW_FLAG IEEE_DENORMAL
Note: The following floating-point exceptions are signalling: IEEE_UNDERFLOW_FLAG IEEE_DENORMAL
Note: The following floating-point exceptions are signalling: IEEE_UNDERFLOW_FLAG IEEE_DENORMAL
Note: The following floating-point exceptions are signalling: IEEE_UNDERFLOW_FLAG IEEE_DENORMAL
Note: The following floating-point exceptions are signalling: IEEE_UNDERFLOW_FLAG IEEE_DENORMAL
Note: The following floating-point exceptions are signalling: IEEE_UNDERFLOW_FLAG IEEE_DENORMAL
Note: The following floating-point exceptions are signalling: IEEE_UNDERFLOW_FLAG IEEE_DENORMAL
