
     Program PWSCF v.7.4 starts on 27Oct2025 at  2:18:44 

     This program is part of the open-source Quantum ESPRESSO suite
     for quantum simulation of materials; please cite
         "P. Giannozzi et al., J. Phys.:Condens. Matter 21 395502 (2009);
         "P. Giannozzi et al., J. Phys.:Condens. Matter 29 465901 (2017);
         "P. Giannozzi et al., J. Chem. Phys. 152 154105 (2020);
          URL http://www.quantum-espresso.org", 
     in publications or presentations arising from this work. More details at
     http://www.quantum-espresso.org/quote

     Parallel version (MPI & OpenMP), running on       8 processor cores
     Number of MPI processes:                 8
     Threads/MPI process:                     1

     MPI processes distributed on     1 nodes
     219308 MiB available memory on the printing compute node when the environment starts

     Reading input from TiFe2_kmesh_convergence/TiFe2_k222.in

     Current dimensions of program PWSCF are:
     Max number of different atomic species (ntypx) = 10
     Max number of k-points (npk) =  40000
     Max angular momentum in pseudopotentials (lmaxx) =  4
     file Fe.pbe-spn-kjpaw_psl.0.2.1.UPF: wavefunction(s)  3D renormalized

     IMPORTANT: XC functional enforced from input :
     Exchange-correlation= PBE
                           (   1   4   3   4   0   0   0)
     Any further DFT definition will be discarded
     Please, verify this is what you really want

     Message from routine setup:
     using ibrav=0 with symmetry is DISCOURAGED, use correct ibrav instead

     R & G space division:  proc/nbgrp/npool/nimage =       8
     Subspace diagonalization in iterative solution of the eigenvalue problem:
     a serial algorithm will be used


     Parallelization info
     --------------------
     sticks:   dense  smooth     PW     G-vecs:    dense   smooth      PW
     Min         563     185     52                49655     9309    1374
     Max         564     186     53                49666     9318    1379
     Sum        4507    1483    421               397277    74505   11019

     Using Slab Decomposition



     bravais-lattice index     =            0
     lattice parameter (alat)  =       9.1568  a.u.
     unit-cell volume          =    1075.5644 (a.u.)^3
     number of atoms/cell      =           12
     number of atomic types    =            2
     number of electrons       =       176.00
     number of Kohn-Sham states=          106
     kinetic-energy cutoff     =      64.0000  Ry
     charge density cutoff     =     782.0000  Ry
     scf convergence threshold =      1.0E-08
     mixing beta               =       0.7000
     number of iterations used =            8  plain     mixing
     Exchange-correlation= PBE
                           (   1   4   3   4   0   0   0)

     celldm(1)=   9.156781  celldm(2)=   0.000000  celldm(3)=   0.000000
     celldm(4)=   0.000000  celldm(5)=   0.000000  celldm(6)=   0.000000

     crystal axes: (cart. coord. in units of alat)
               a(1) = (   1.000000   0.000000   0.000000 )  
               a(2) = (  -0.500000   0.866025   0.000000 )  
               a(3) = (   0.000000   0.000000   1.617623 )  

     reciprocal axes: (cart. coord. in units 2 pi/alat)
               b(1) = (  1.000000  0.577350 -0.000000 )  
               b(2) = (  0.000000  1.154701  0.000000 )  
               b(3) = (  0.000000 -0.000000  0.618191 )  


     PseudoPot. # 1 for Fe read from file:
     ./Fe.pbe-spn-kjpaw_psl.0.2.1.UPF
     MD5 check sum: e86618425769142926afa95317d90200
     Pseudo is Projector augmented-wave + core cor, Zval = 16.0
     Generated using "atomic" code by A. Dal Corso  v.5.0.99 svn rev. 10869
     Shape of augmentation charge: PSQ
     Using radial grid of 1191 points,  6 beta functions with: 
                l(1) =   0
                l(2) =   0
                l(3) =   1
                l(4) =   1
                l(5) =   2
                l(6) =   2
     Q(r) pseudized with 0 coefficients 


     PseudoPot. # 2 for Ti read from file:
     ./Ti_pbe_v1.4.uspp.F.UPF
     MD5 check sum: 88a00a6731bd790ddea75d31a80cb452
     Pseudo is Ultrasoft + core correction, Zval = 12.0
     Generated by new atomic code, or converted to UPF format
     Using radial grid of  851 points,  6 beta functions with: 
                l(1) =   0
                l(2) =   0
                l(3) =   1
                l(4) =   1
                l(5) =   2
                l(6) =   2
     Q(r) pseudized with  6 coefficients,  rinner =    1.000   1.000   1.000
                                                       1.000   1.000

     atomic species   valence    mass     pseudopotential
     Fe               16.00    55.84500     Fe( 1.00)
     Ti               12.00    47.86700     Ti( 1.00)

     24 Sym. Ops., with inversion, found (12 have fractional translation)



   Cartesian axes

     site n.     atom                  positions (alat units)
         1        Fe     tau(   1) = (   0.7465670   0.1463196   0.4044057  )
         2        Fe     tau(   2) = (  -0.2465670   0.7197058   1.2132171  )
         3        Fe     tau(   3) = (  -0.0000000   0.2926392   1.2132171  )
         4        Fe     tau(   4) = (   0.2534330   0.1463196   0.4044057  )
         5        Fe     tau(   5) = (   0.5000000   0.5733862   0.4044057  )
         6        Fe     tau(   6) = (   0.2465670   0.7197058   1.2132171  )
         7        Fe     tau(   7) = (   0.0000000   0.0000000   0.0000000  )
         8        Fe     tau(   8) = (   0.0000000   0.0000000   0.8088114  )
         9        Ti     tau(   9) = (   0.5000000   0.2886751   1.5200090  )
        10        Ti     tau(  10) = (  -0.0000000   0.5773503   0.7111976  )
        11        Ti     tau(  11) = (  -0.0000000   0.5773503   0.0976138  )
        12        Ti     tau(  12) = (   0.5000000   0.2886751   0.9064252  )

     number of k points=     4  Marzari-Vanderbilt smearing, width (Ry)=  0.0050
                       cart. coord. in units 2pi/alat
        k(    1) = (   0.0000000   0.0000000   0.0000000), wk =   0.2500000
        k(    2) = (   0.0000000   0.0000000  -0.3090955), wk =   0.2500000
        k(    3) = (   0.0000000  -0.5773503   0.0000000), wk =   0.7500000
        k(    4) = (   0.0000000  -0.5773503  -0.3090955), wk =   0.7500000

     Dense  grid:   397277 G-vectors     FFT dimensions: (  81,  81, 144)

     Smooth grid:    74505 G-vectors     FFT dimensions: (  48,  48,  80)

     Estimated max dynamical RAM per process >     205.72 MB

     Estimated total dynamical RAM >       1.61 GB

     Check: negative core charge=   -0.000017

     Initial potential from superposition of free atoms

     starting charge     171.9963, renormalised to     176.0000

     negative rho (up, down):  6.092E-03 0.000E+00
     Starting wfcs are  144 randomized atomic wfcs
     Checking if some PAW data can be deallocated... 

     total cpu time spent up to now is        2.5 secs

     per-process dynamical memory:   152.2 Mb

     Self-consistent Calculation

     iteration #  1     ecut=    64.00 Ry     beta= 0.70
     Davidson diagonalization with overlap
     ethr =  1.00E-02,  avg # of iterations =  2.0

     negative rho (up, down):  2.094E-04 0.000E+00

     total cpu time spent up to now is        4.6 secs

     total energy              =   -3017.15595455 Ry
     estimated scf accuracy    <     116.39227886 Ry

     iteration #  2     ecut=    64.00 Ry     beta= 0.70
     Davidson diagonalization with overlap
     ethr =  1.00E-02,  avg # of iterations =  7.0

     total cpu time spent up to now is        7.9 secs

     total energy              =   -3076.69286471 Ry
     estimated scf accuracy    <     695.22151943 Ry

     iteration #  3     ecut=    64.00 Ry     beta= 0.70
     Davidson diagonalization with overlap
     ethr =  1.00E-02,  avg # of iterations =  5.2

     total cpu time spent up to now is       10.6 secs

     total energy              =   -3121.03500348 Ry
     estimated scf accuracy    <      93.36042298 Ry

     iteration #  4     ecut=    64.00 Ry     beta= 0.70
     Davidson diagonalization with overlap
     ethr =  1.00E-02,  avg # of iterations =  1.2

     negative rho (up, down):  6.707E-06 0.000E+00

     total cpu time spent up to now is       12.5 secs

     total energy              =   -3116.75685762 Ry
     estimated scf accuracy    <      53.04841122 Ry

     iteration #  5     ecut=    64.00 Ry     beta= 0.70
     Davidson diagonalization with overlap
     ethr =  1.00E-02,  avg # of iterations =  2.0

     negative rho (up, down):  1.020E-04 0.000E+00

     total cpu time spent up to now is       14.4 secs

     total energy              =   -3115.50588778 Ry
     estimated scf accuracy    <      40.95441574 Ry

     iteration #  6     ecut=    64.00 Ry     beta= 0.70
     Davidson diagonalization with overlap
     ethr =  1.00E-02,  avg # of iterations =  1.0
     Minimization algorithm failed to find Fermi energy: reverting to bisection
     Possible cause: smearing is larger than the electronic band-gap.

     negative rho (up, down):  4.927E-04 0.000E+00

     total cpu time spent up to now is       16.2 secs

     total energy              =   -3112.90828785 Ry
     estimated scf accuracy    <      28.22927252 Ry

     iteration #  7     ecut=    64.00 Ry     beta= 0.70
     Davidson diagonalization with overlap
     ethr =  1.00E-02,  avg # of iterations =  1.0

     negative rho (up, down):  7.550E-04 0.000E+00

     total cpu time spent up to now is       18.1 secs

     total energy              =   -3112.06132305 Ry
     estimated scf accuracy    <      15.46405543 Ry

     iteration #  8     ecut=    64.00 Ry     beta= 0.70
     Davidson diagonalization with overlap
     ethr =  8.79E-03,  avg # of iterations =  1.0

     negative rho (up, down):  2.151E-03 0.000E+00

     total cpu time spent up to now is       19.9 secs

     total energy              =   -3110.67802298 Ry
     estimated scf accuracy    <      10.09549771 Ry

     iteration #  9     ecut=    64.00 Ry     beta= 0.70
     Davidson diagonalization with overlap
     ethr =  5.74E-03,  avg # of iterations =  2.2

     negative rho (up, down):  2.169E-03 0.000E+00

     total cpu time spent up to now is       21.9 secs

     total energy              =   -3111.15028052 Ry
     estimated scf accuracy    <       1.12589592 Ry

     iteration # 10     ecut=    64.00 Ry     beta= 0.70
     Davidson diagonalization with overlap
     ethr =  6.40E-04,  avg # of iterations =  5.2

     negative rho (up, down):  6.621E-03 0.000E+00

     total cpu time spent up to now is       24.3 secs

     total energy              =   -3111.32991308 Ry
     estimated scf accuracy    <       0.52550069 Ry

     iteration # 11     ecut=    64.00 Ry     beta= 0.70
     Davidson diagonalization with overlap
     ethr =  2.99E-04,  avg # of iterations =  8.0

     negative rho (up, down):  2.147E-03 0.000E+00

     total cpu time spent up to now is       27.4 secs

     total energy              =   -3108.52055741 Ry
     estimated scf accuracy    <      73.73116133 Ry

     iteration # 12     ecut=    64.00 Ry     beta= 0.70
     Davidson diagonalization with overlap
     ethr =  2.99E-04,  avg # of iterations =  7.5

     negative rho (up, down):  1.199E-03 0.000E+00

     total cpu time spent up to now is       30.4 secs

     total energy              =   -3111.37574733 Ry
     estimated scf accuracy    <       0.24571080 Ry

     iteration # 13     ecut=    64.00 Ry     beta= 0.70
     Davidson diagonalization with overlap
     ethr =  1.40E-04,  avg # of iterations =  6.5

     negative rho (up, down):  1.272E-03 0.000E+00

     total cpu time spent up to now is       32.9 secs

     total energy              =   -3111.69749105 Ry
     estimated scf accuracy    <       3.86784918 Ry

     iteration # 14     ecut=    64.00 Ry     beta= 0.70
     Davidson diagonalization with overlap
     ethr =  1.40E-04,  avg # of iterations =  1.0

     negative rho (up, down):  1.524E-03 0.000E+00

     total cpu time spent up to now is       34.8 secs

     total energy              =   -3111.55453481 Ry
     estimated scf accuracy    <       4.64409773 Ry

     iteration # 15     ecut=    64.00 Ry     beta= 0.70
     Davidson diagonalization with overlap
     ethr =  1.40E-04,  avg # of iterations =  1.0

     negative rho (up, down):  1.507E-03 0.000E+00

     total cpu time spent up to now is       36.6 secs

     total energy              =   -3111.59054661 Ry
     estimated scf accuracy    <       3.13957900 Ry

     iteration # 16     ecut=    64.00 Ry     beta= 0.70
     Davidson diagonalization with overlap
     ethr =  1.40E-04,  avg # of iterations =  1.0

     negative rho (up, down):  1.654E-03 0.000E+00

     total cpu time spent up to now is       38.4 secs

     total energy              =   -3111.53755960 Ry
     estimated scf accuracy    <       3.30826034 Ry

     iteration # 17     ecut=    64.00 Ry     beta= 0.70
     Davidson diagonalization with overlap
     ethr =  1.40E-04,  avg # of iterations =  1.0

     negative rho (up, down):  1.754E-03 0.000E+00

     total cpu time spent up to now is       40.3 secs

     total energy              =   -3111.49581403 Ry
     estimated scf accuracy    <       2.88563943 Ry

     iteration # 18     ecut=    64.00 Ry     beta= 0.70
     Davidson diagonalization with overlap
     ethr =  1.40E-04,  avg # of iterations =  1.0

     negative rho (up, down):  2.122E-03 0.000E+00

     total cpu time spent up to now is       42.1 secs

     total energy              =   -3111.28323077 Ry
     estimated scf accuracy    <       2.52714559 Ry

     iteration # 19     ecut=    64.00 Ry     beta= 0.70
     Davidson diagonalization with overlap
     ethr =  1.40E-04,  avg # of iterations =  2.5

     negative rho (up, down):  2.148E-03 0.000E+00

     total cpu time spent up to now is       44.1 secs

     total energy              =   -3111.32187281 Ry
     estimated scf accuracy    <       0.63315710 Ry

     iteration # 20     ecut=    64.00 Ry     beta= 0.70
     Davidson diagonalization with overlap
     ethr =  1.40E-04,  avg # of iterations =  1.0

     negative rho (up, down):  4.085E-03 0.000E+00

     total cpu time spent up to now is       45.9 secs

     total energy              =   -3111.16000653 Ry
     estimated scf accuracy    <       0.57323990 Ry

     iteration # 21     ecut=    64.00 Ry     beta= 0.70
     Davidson diagonalization with overlap
     ethr =  1.40E-04,  avg # of iterations =  6.5

     negative rho (up, down):  3.477E-03 0.000E+00

     total cpu time spent up to now is       48.5 secs

     total energy              =   -3111.22857050 Ry
     estimated scf accuracy    <       0.95436770 Ry

     iteration # 22     ecut=    64.00 Ry     beta= 0.70
     Davidson diagonalization with overlap
     ethr =  1.40E-04,  avg # of iterations =  2.2

     negative rho (up, down):  3.397E-03 0.000E+00

     total cpu time spent up to now is       50.5 secs

     total energy              =   -3111.26191869 Ry
     estimated scf accuracy    <       0.02647193 Ry

     iteration # 23     ecut=    64.00 Ry     beta= 0.70
     Davidson diagonalization with overlap
     ethr =  1.50E-05,  avg # of iterations =  5.2

     negative rho (up, down):  4.081E-03 0.000E+00

     total cpu time spent up to now is       52.8 secs

     total energy              =   -3111.24992868 Ry
     estimated scf accuracy    <       0.07332559 Ry

     iteration # 24     ecut=    64.00 Ry     beta= 0.70
     Davidson diagonalization with overlap
     ethr =  1.50E-05,  avg # of iterations =  5.0

     negative rho (up, down):  3.766E-03 0.000E+00

     total cpu time spent up to now is       55.3 secs

     total energy              =   -3111.25934200 Ry
     estimated scf accuracy    <       0.18279165 Ry

     iteration # 25     ecut=    64.00 Ry     beta= 0.70
     Davidson diagonalization with overlap
     ethr =  1.50E-05,  avg # of iterations =  2.5

     negative rho (up, down):  3.664E-03 0.000E+00

     total cpu time spent up to now is       57.3 secs

     total energy              =   -3111.26363830 Ry
     estimated scf accuracy    <       0.01140585 Ry

     iteration # 26     ecut=    64.00 Ry     beta= 0.70
     Davidson diagonalization with overlap
     ethr =  6.48E-06,  avg # of iterations =  4.8

     negative rho (up, down):  3.660E-03 0.000E+00

     total cpu time spent up to now is       59.4 secs

     total energy              =   -3111.26459280 Ry
     estimated scf accuracy    <       0.00016168 Ry

     iteration # 27     ecut=    64.00 Ry     beta= 0.70
     Davidson diagonalization with overlap
     ethr =  9.19E-08,  avg # of iterations =  5.8

     negative rho (up, down):  3.664E-03 0.000E+00

     total cpu time spent up to now is       62.0 secs

     total energy              =   -3111.26477746 Ry
     estimated scf accuracy    <       0.00035756 Ry

     iteration # 28     ecut=    64.00 Ry     beta= 0.70
     Davidson diagonalization with overlap
     ethr =  9.19E-08,  avg # of iterations =  1.0

     negative rho (up, down):  3.668E-03 0.000E+00

     total cpu time spent up to now is       63.8 secs

     total energy              =   -3111.26477576 Ry
     estimated scf accuracy    <       0.00008120 Ry

     iteration # 29     ecut=    64.00 Ry     beta= 0.70
     Davidson diagonalization with overlap
     ethr =  4.61E-08,  avg # of iterations =  1.8

     negative rho (up, down):  3.667E-03 0.000E+00

     total cpu time spent up to now is       65.7 secs

     total energy              =   -3111.26477877 Ry
     estimated scf accuracy    <       0.00000553 Ry

     iteration # 30     ecut=    64.00 Ry     beta= 0.70
     Davidson diagonalization with overlap
     ethr =  3.14E-09,  avg # of iterations =  5.0

     negative rho (up, down):  3.666E-03 0.000E+00

     total cpu time spent up to now is       68.0 secs

     total energy              =   -3111.26478020 Ry
     estimated scf accuracy    <       0.00000572 Ry

     iteration # 31     ecut=    64.00 Ry     beta= 0.70
     Davidson diagonalization with overlap
     ethr =  3.14E-09,  avg # of iterations =  1.0

     negative rho (up, down):  3.666E-03 0.000E+00

     total cpu time spent up to now is       69.8 secs

     total energy              =   -3111.26478037 Ry
     estimated scf accuracy    <       0.00000043 Ry

     iteration # 32     ecut=    64.00 Ry     beta= 0.70
     Davidson diagonalization with overlap
     ethr =  2.45E-10,  avg # of iterations =  5.0

     negative rho (up, down):  3.666E-03 0.000E+00

     total cpu time spent up to now is       72.1 secs

     total energy              =   -3111.26478045 Ry
     estimated scf accuracy    <       0.00000006 Ry

     iteration # 33     ecut=    64.00 Ry     beta= 0.70
     Davidson diagonalization with overlap
     ethr =  3.37E-11,  avg # of iterations =  6.5

     negative rho (up, down):  3.666E-03 0.000E+00

     total cpu time spent up to now is       74.5 secs

     End of self-consistent calculation

          k = 0.0000 0.0000 0.0000 (  9343 PWs)   bands (ev):

   -70.6852 -70.6666 -70.6142 -70.6032 -70.6032 -70.6032 -70.6032 -70.5954
   -40.8641 -40.8498 -40.8146 -40.7992 -37.1218 -37.0621 -36.8882 -36.7999
   -36.7999 -36.7796 -36.7796 -36.7463 -36.7463 -36.6823 -36.6676 -36.6326
   -36.6326 -36.6289 -36.6289 -36.5543 -36.5543 -36.5470 -36.5470 -36.5292
   -36.5292 -36.5215 -36.4991 -36.4990 -17.1537 -17.1537 -17.1521 -17.1503
   -17.1396 -17.1396 -17.0105 -17.0076 -16.9802 -16.9802 -16.9655 -16.9655
     8.6263  10.6559  11.4475  12.0532  12.5600  12.6327  12.8133  12.8133
    13.0237  13.0237  13.2484  13.3383  13.4572  13.4572  13.8958  13.8958
    14.0328  14.0328  14.2602  14.3514  14.3514  14.3892  14.3892  14.8445
    14.8445  14.9761  15.4127  15.4127  15.5130  15.5130  15.9127  15.9711
    15.9711  15.9929  15.9929  16.0876  16.1428  16.1428  16.1754  16.2137
    16.2137  16.2377  16.2672  16.3518  16.3518  16.7538  16.7538  16.7829
    17.0682  17.0682  17.3479  17.3479  17.5354  17.5354  17.5881  17.5884
    17.8360  17.8360

          k = 0.0000 0.0000-0.3091 (  9374 PWs)   bands (ev):

   -70.6771 -70.6771 -70.6036 -70.6036 -70.6032 -70.6032 -70.6032 -70.6032
   -40.8581 -40.8581 -40.8058 -40.8058 -37.0976 -37.0976 -36.8104 -36.8104
   -36.7935 -36.7935 -36.7935 -36.7935 -36.7048 -36.7048 -36.7048 -36.7048
   -36.5674 -36.5674 -36.5674 -36.5674 -36.5636 -36.5636 -36.5437 -36.5437
   -36.5437 -36.5437 -36.4991 -36.4991 -17.1502 -17.1502 -17.1469 -17.1469
   -17.1469 -17.1469 -17.0100 -17.0100 -16.9726 -16.9726 -16.9726 -16.9726
     9.2947   9.2947  12.0553  12.0553  12.7044  12.7044  12.9127  12.9127
    12.9127  12.9127  13.3333  13.3333  13.6592  13.6592  13.6592  13.6592
    14.0809  14.0809  14.0809  14.0809  14.9010  14.9010  14.9010  14.9010
    14.9067  14.9067  15.2036  15.2036  15.2036  15.2036  15.3965  15.3965
    16.0649  16.0649  16.0649  16.0649  16.1332  16.1332  16.1332  16.1332
    16.2063  16.2063  16.6273  16.6273  16.6273  16.6273  17.0032  17.0032
    17.2107  17.2107  17.2107  17.2107  17.6908  17.6908  17.6908  17.6908
    18.1012  18.1025

          k = 0.0000-0.5774 0.0000 (  9312 PWs)   bands (ev):

   -70.6649 -70.6464 -70.6339 -70.6233 -70.6142 -70.6032 -70.6031 -70.5850
   -40.8484 -40.8331 -40.8316 -40.8159 -37.0065 -36.9501 -36.8767 -36.8586
   -36.8012 -36.7583 -36.7461 -36.7359 -36.7017 -36.6714 -36.6657 -36.6477
   -36.6469 -36.6373 -36.6338 -36.6292 -36.6074 -36.5972 -36.5869 -36.5431
   -36.5290 -36.5244 -36.5232 -36.5047 -17.1865 -17.1703 -17.1671 -17.1544
   -17.1207 -17.0802 -17.0583 -17.0059 -16.9864 -16.9646 -16.9581 -16.9497
    10.4991  11.0715  12.0085  12.2116  12.3922  12.6991  12.8420  12.9153
    13.0541  13.2373  13.6564  13.6998  13.7788  13.9558  14.0110  14.0184
    14.0397  14.0501  14.1798  14.3377  14.3771  14.4327  14.4629  14.4668
    14.4918  14.5436  14.5685  14.5972  14.5979  14.6157  14.7581  14.7937
    14.8473  15.1426  15.8273  16.1182  16.1622  16.1879  16.2061  16.2820
    16.3443  16.3548  16.3703  16.5968  16.6653  16.9191  16.9275  16.9877
    17.1243  17.1259  17.1702  17.2039  17.4687  17.5941  17.6032  17.7221
    17.8921  18.2465

          k = 0.0000-0.5774-0.3091 (  9284 PWs)   bands (ev):

   -70.6563 -70.6563 -70.6323 -70.6323 -70.6031 -70.6031 -70.5952 -70.5952
   -40.8439 -40.8439 -40.8206 -40.8206 -36.9858 -36.9858 -36.8580 -36.8580
   -36.7598 -36.7598 -36.7396 -36.7396 -36.7203 -36.7203 -36.6828 -36.6828
   -36.6474 -36.6474 -36.6088 -36.6088 -36.5719 -36.5719 -36.5539 -36.5539
   -36.5391 -36.5391 -36.5231 -36.5231 -17.1739 -17.1739 -17.1626 -17.1626
   -17.1123 -17.1123 -17.0242 -17.0242 -16.9713 -16.9712 -16.9569 -16.9569
    10.9671  10.9671  11.5986  11.5986  12.7516  12.7516  12.9432  12.9432
    13.3493  13.3493  13.3960  13.3960  13.9344  13.9344  13.9863  13.9863
    14.0214  14.0214  14.2505  14.2505  14.4067  14.4067  14.4372  14.4372
    14.4548  14.4548  14.5338  14.5338  14.7133  14.7133  14.8838  14.8838
    15.5714  15.5714  15.6570  15.6570  15.9172  15.9172  16.0358  16.0358
    16.2931  16.2931  16.7004  16.7004  16.7006  16.7006  16.8761  16.8761
    17.0446  17.0446  17.3852  17.3852  17.7125  17.7125  17.7167  17.7167
    18.0941  18.0941

     the Fermi energy is    16.2386 ev

!    total energy              =   -3111.26478047 Ry
     estimated scf accuracy    <          7.6E-10 Ry
     smearing contrib. (-TS)   =       0.00063748 Ry
     internal energy E=F+TS    =   -3111.26541795 Ry

     The total energy is F=E-TS. E is the sum of the following terms:
     one-electron contribution =   -1208.98362918 Ry
     hartree contribution      =     699.07038301 Ry
     xc contribution           =    -349.51597649 Ry
     ewald contribution        =   -1642.60130586 Ry
     one-center paw contrib.   =    -609.23488943 Ry

     convergence has been achieved in  33 iterations

     negative rho (up, down):  3.666E-03 0.000E+00

     Forces acting on atoms (cartesian axes, Ry/au):

     atom    1 type  1   force =    -0.01559480    0.00900366   -0.00000000
     atom    2 type  1   force =     0.01559480   -0.00900366   -0.00000000
     atom    3 type  1   force =     0.00000000    0.01800733   -0.00000000
     atom    4 type  1   force =     0.01559480    0.00900366   -0.00000000
     atom    5 type  1   force =     0.00000000   -0.01800733   -0.00000000
     atom    6 type  1   force =    -0.01559480   -0.00900366   -0.00000000
     atom    7 type  1   force =    -0.00000000   -0.00000000    0.00000000
     atom    8 type  1   force =    -0.00000000   -0.00000000   -0.00000000
     atom    9 type  2   force =     0.00000000   -0.00000000   -0.01354759
     atom   10 type  2   force =     0.00000000    0.00000000   -0.01354759
     atom   11 type  2   force =    -0.00000000    0.00000000    0.01354759
     atom   12 type  2   force =    -0.00000000    0.00000000    0.01354759

     Total force =     0.051766     Total SCF correction =     0.000090


     Computing stress (Cartesian axis) and pressure


     negative rho (up, down):  3.666E-03 0.000E+00
          total   stress  (Ry/bohr**3)                   (kbar)     P=     -161.03
  -0.00115722  -0.00000000   0.00000000         -170.23       -0.00        0.00
   0.00000000  -0.00115722   0.00000000            0.00     -170.23        0.00
   0.00000000   0.00000000  -0.00096951            0.00        0.00     -142.62


     Writing all to output data dir ./FeAl.save/ :
     XML data file, charge density, pseudopotentials, collected wavefunctions

     init_run     :      1.93s CPU      2.14s WALL (       1 calls)
     electrons    :     69.01s CPU     72.20s WALL (       1 calls)
     forces       :      0.61s CPU      0.64s WALL (       1 calls)
     stress       :      3.30s CPU      3.37s WALL (       1 calls)

     Called by init_run:
     wfcinit      :      0.47s CPU      0.61s WALL (       1 calls)
     potinit      :      0.76s CPU      0.79s WALL (       1 calls)
     hinit0       :      0.37s CPU      0.39s WALL (       1 calls)

     Called by electrons:
     c_bands      :     35.29s CPU     35.59s WALL (      33 calls)
     sum_band     :     13.04s CPU     13.99s WALL (      33 calls)
     v_of_rho     :      1.83s CPU      1.91s WALL (      34 calls)
     newd         :      7.85s CPU      8.83s WALL (      34 calls)
     PAW_pot      :     11.22s CPU     11.92s WALL (      34 calls)
     mix_rho      :      0.22s CPU      0.23s WALL (      33 calls)

     Called by c_bands:
     init_us_2    :      0.22s CPU      0.23s WALL (     276 calls)
     cegterg      :     34.08s CPU     34.36s WALL (     132 calls)

     Called by *egterg:
     cdiaghg      :      6.75s CPU      6.91s WALL (     575 calls)
     h_psi        :     18.45s CPU     18.68s WALL (     579 calls)
     s_psi        :      1.59s CPU      1.59s WALL (     579 calls)
     g_psi        :      0.08s CPU      0.08s WALL (     443 calls)

     Called by h_psi:
     h_psi:calbec :      2.35s CPU      2.36s WALL (     579 calls)
     vloc_psi     :     14.39s CPU     14.59s WALL (     579 calls)
     add_vuspsi   :      1.65s CPU      1.66s WALL (     579 calls)

     General routines
     calbec       :      3.60s CPU      3.62s WALL (     779 calls)
     fft          :      1.50s CPU      1.63s WALL (     465 calls)
     ffts         :      0.39s CPU      0.39s WALL (      67 calls)
     fftw         :     14.20s CPU     14.39s WALL (   85580 calls)
     interpolate  :      0.47s CPU      0.48s WALL (      34 calls)

     Parallel routines

     PWSCF        :     75.07s CPU     79.76s WALL


   This run was terminated on:   2:20: 4  27Oct2025            

=------------------------------------------------------------------------------=
   JOB DONE.
=------------------------------------------------------------------------------=
Note: The following floating-point exceptions are signalling: IEEE_UNDERFLOW_FLAG IEEE_DENORMAL
Note: The following floating-point exceptions are signalling: IEEE_UNDERFLOW_FLAG IEEE_DENORMAL
Note: The following floating-point exceptions are signalling: IEEE_UNDERFLOW_FLAG IEEE_DENORMAL
Note: The following floating-point exceptions are signalling: IEEE_UNDERFLOW_FLAG IEEE_DENORMAL
Note: The following floating-point exceptions are signalling: IEEE_UNDERFLOW_FLAG IEEE_DENORMAL
Note: The following floating-point exceptions are signalling: IEEE_UNDERFLOW_FLAG IEEE_DENORMAL
Note: The following floating-point exceptions are signalling: IEEE_UNDERFLOW_FLAG IEEE_DENORMAL
Note: The following floating-point exceptions are signalling: IEEE_UNDERFLOW_FLAG IEEE_DENORMAL
