
     Program PWSCF v.7.4 starts on 27Oct2025 at  2:30:57 

     This program is part of the open-source Quantum ESPRESSO suite
     for quantum simulation of materials; please cite
         "P. Giannozzi et al., J. Phys.:Condens. Matter 21 395502 (2009);
         "P. Giannozzi et al., J. Phys.:Condens. Matter 29 465901 (2017);
         "P. Giannozzi et al., J. Chem. Phys. 152 154105 (2020);
          URL http://www.quantum-espresso.org", 
     in publications or presentations arising from this work. More details at
     http://www.quantum-espresso.org/quote

     Parallel version (MPI & OpenMP), running on       8 processor cores
     Number of MPI processes:                 8
     Threads/MPI process:                     1

     MPI processes distributed on     1 nodes
     218458 MiB available memory on the printing compute node when the environment starts

     Reading input from TiFe2_kmesh_convergence/TiFe2_k777.in

     Current dimensions of program PWSCF are:
     Max number of different atomic species (ntypx) = 10
     Max number of k-points (npk) =  40000
     Max angular momentum in pseudopotentials (lmaxx) =  4
     file Fe.pbe-spn-kjpaw_psl.0.2.1.UPF: wavefunction(s)  3D renormalized

     IMPORTANT: XC functional enforced from input :
     Exchange-correlation= PBE
                           (   1   4   3   4   0   0   0)
     Any further DFT definition will be discarded
     Please, verify this is what you really want

     Message from routine setup:
     using ibrav=0 with symmetry is DISCOURAGED, use correct ibrav instead

     R & G space division:  proc/nbgrp/npool/nimage =       8
     Subspace diagonalization in iterative solution of the eigenvalue problem:
     a serial algorithm will be used


     Parallelization info
     --------------------
     sticks:   dense  smooth     PW     G-vecs:    dense   smooth      PW
     Min         563     185     52                49655     9309    1372
     Max         564     186     53                49666     9318    1377
     Sum        4507    1483    421               397277    74505   10995

     Using Slab Decomposition



     bravais-lattice index     =            0
     lattice parameter (alat)  =       9.1568  a.u.
     unit-cell volume          =    1075.5644 (a.u.)^3
     number of atoms/cell      =           12
     number of atomic types    =            2
     number of electrons       =       176.00
     number of Kohn-Sham states=          106
     kinetic-energy cutoff     =      64.0000  Ry
     charge density cutoff     =     782.0000  Ry
     scf convergence threshold =      1.0E-08
     mixing beta               =       0.7000
     number of iterations used =            8  plain     mixing
     Exchange-correlation= PBE
                           (   1   4   3   4   0   0   0)

     celldm(1)=   9.156781  celldm(2)=   0.000000  celldm(3)=   0.000000
     celldm(4)=   0.000000  celldm(5)=   0.000000  celldm(6)=   0.000000

     crystal axes: (cart. coord. in units of alat)
               a(1) = (   1.000000   0.000000   0.000000 )  
               a(2) = (  -0.500000   0.866025   0.000000 )  
               a(3) = (   0.000000   0.000000   1.617623 )  

     reciprocal axes: (cart. coord. in units 2 pi/alat)
               b(1) = (  1.000000  0.577350 -0.000000 )  
               b(2) = (  0.000000  1.154701  0.000000 )  
               b(3) = (  0.000000 -0.000000  0.618191 )  


     PseudoPot. # 1 for Fe read from file:
     ./Fe.pbe-spn-kjpaw_psl.0.2.1.UPF
     MD5 check sum: e86618425769142926afa95317d90200
     Pseudo is Projector augmented-wave + core cor, Zval = 16.0
     Generated using "atomic" code by A. Dal Corso  v.5.0.99 svn rev. 10869
     Shape of augmentation charge: PSQ
     Using radial grid of 1191 points,  6 beta functions with: 
                l(1) =   0
                l(2) =   0
                l(3) =   1
                l(4) =   1
                l(5) =   2
                l(6) =   2
     Q(r) pseudized with 0 coefficients 


     PseudoPot. # 2 for Ti read from file:
     ./Ti_pbe_v1.4.uspp.F.UPF
     MD5 check sum: 88a00a6731bd790ddea75d31a80cb452
     Pseudo is Ultrasoft + core correction, Zval = 12.0
     Generated by new atomic code, or converted to UPF format
     Using radial grid of  851 points,  6 beta functions with: 
                l(1) =   0
                l(2) =   0
                l(3) =   1
                l(4) =   1
                l(5) =   2
                l(6) =   2
     Q(r) pseudized with  6 coefficients,  rinner =    1.000   1.000   1.000
                                                       1.000   1.000

     atomic species   valence    mass     pseudopotential
     Fe               16.00    55.84500     Fe( 1.00)
     Ti               12.00    47.86700     Ti( 1.00)

     24 Sym. Ops., with inversion, found (12 have fractional translation)



   Cartesian axes

     site n.     atom                  positions (alat units)
         1        Fe     tau(   1) = (   0.7465670   0.1463196   0.4044057  )
         2        Fe     tau(   2) = (  -0.2465670   0.7197058   1.2132171  )
         3        Fe     tau(   3) = (  -0.0000000   0.2926392   1.2132171  )
         4        Fe     tau(   4) = (   0.2534330   0.1463196   0.4044057  )
         5        Fe     tau(   5) = (   0.5000000   0.5733862   0.4044057  )
         6        Fe     tau(   6) = (   0.2465670   0.7197058   1.2132171  )
         7        Fe     tau(   7) = (   0.0000000   0.0000000   0.0000000  )
         8        Fe     tau(   8) = (   0.0000000   0.0000000   0.8088114  )
         9        Ti     tau(   9) = (   0.5000000   0.2886751   1.5200090  )
        10        Ti     tau(  10) = (  -0.0000000   0.5773503   0.7111976  )
        11        Ti     tau(  11) = (  -0.0000000   0.5773503   0.0976138  )
        12        Ti     tau(  12) = (   0.5000000   0.2886751   0.9064252  )

     number of k points=    32  Marzari-Vanderbilt smearing, width (Ry)=  0.0050
                       cart. coord. in units 2pi/alat
        k(    1) = (   0.0000000   0.0000000   0.0000000), wk =   0.0058309
        k(    2) = (   0.0000000   0.0000000   0.0883130), wk =   0.0116618
        k(    3) = (   0.0000000   0.0000000   0.1766260), wk =   0.0116618
        k(    4) = (   0.0000000   0.0000000   0.2649390), wk =   0.0116618
        k(    5) = (   0.0000000   0.1649572   0.0000000), wk =   0.0349854
        k(    6) = (   0.0000000   0.1649572   0.0883130), wk =   0.0699708
        k(    7) = (   0.0000000   0.1649572   0.1766260), wk =   0.0699708
        k(    8) = (   0.0000000   0.1649572   0.2649390), wk =   0.0699708
        k(    9) = (   0.0000000   0.3299144   0.0000000), wk =   0.0349854
        k(   10) = (   0.0000000   0.3299144   0.0883130), wk =   0.0699708
        k(   11) = (   0.0000000   0.3299144   0.1766260), wk =   0.0699708
        k(   12) = (   0.0000000   0.3299144   0.2649390), wk =   0.0699708
        k(   13) = (   0.0000000   0.4948717   0.0000000), wk =   0.0349854
        k(   14) = (   0.0000000   0.4948717   0.0883130), wk =   0.0699708
        k(   15) = (   0.0000000   0.4948717   0.1766260), wk =   0.0699708
        k(   16) = (   0.0000000   0.4948717   0.2649390), wk =   0.0699708
        k(   17) = (   0.1428571   0.2474358   0.0000000), wk =   0.0349854
        k(   18) = (   0.1428571   0.2474358   0.0883130), wk =   0.0699708
        k(   19) = (   0.1428571   0.2474358   0.1766260), wk =   0.0699708
        k(   20) = (   0.1428571   0.2474358   0.2649390), wk =   0.0699708
        k(   21) = (   0.1428571   0.4123930   0.0000000), wk =   0.0699708
        k(   22) = (   0.1428571   0.4123930   0.0883130), wk =   0.1399417
        k(   23) = (   0.1428571   0.4123930   0.1766260), wk =   0.1399417
        k(   24) = (   0.1428571   0.4123930   0.2649390), wk =   0.1399417
        k(   25) = (   0.1428571   0.5773503   0.0000000), wk =   0.0349854
        k(   26) = (   0.1428571   0.5773503   0.0883130), wk =   0.0699708
        k(   27) = (   0.1428571   0.5773503   0.1766260), wk =   0.0699708
        k(   28) = (   0.1428571   0.5773503   0.2649390), wk =   0.0699708
        k(   29) = (   0.2857143   0.4948717   0.0000000), wk =   0.0349854
        k(   30) = (   0.2857143   0.4948717   0.0883130), wk =   0.0699708
        k(   31) = (   0.2857143   0.4948717   0.1766260), wk =   0.0699708
        k(   32) = (   0.2857143   0.4948717   0.2649390), wk =   0.0699708

     Dense  grid:   397277 G-vectors     FFT dimensions: (  81,  81, 144)

     Smooth grid:    74505 G-vectors     FFT dimensions: (  48,  48,  80)

     Estimated max dynamical RAM per process >     258.35 MB

     Estimated total dynamical RAM >       2.02 GB

     Check: negative core charge=   -0.000017

     Initial potential from superposition of free atoms

     starting charge     171.9963, renormalised to     176.0000

     negative rho (up, down):  6.092E-03 0.000E+00
     Starting wfcs are  144 randomized atomic wfcs
     Checking if some PAW data can be deallocated... 

     total cpu time spent up to now is        5.4 secs

     per-process dynamical memory:   209.8 Mb

     Self-consistent Calculation

     iteration #  1     ecut=    64.00 Ry     beta= 0.70
     Davidson diagonalization with overlap
     ethr =  1.00E-02,  avg # of iterations =  2.0

     negative rho (up, down):  2.154E-04 0.000E+00

     total cpu time spent up to now is       15.1 secs

     total energy              =   -3017.04788030 Ry
     estimated scf accuracy    <     116.48523428 Ry

     iteration #  2     ecut=    64.00 Ry     beta= 0.70
     Davidson diagonalization with overlap
     ethr =  1.00E-02,  avg # of iterations =  6.6

     total cpu time spent up to now is       34.2 secs

     total energy              =   -3075.99625411 Ry
     estimated scf accuracy    <     698.76991967 Ry

     iteration #  3     ecut=    64.00 Ry     beta= 0.70
     Davidson diagonalization with overlap
     ethr =  1.00E-02,  avg # of iterations =  5.2

     total cpu time spent up to now is       49.1 secs

     total energy              =   -3120.89367406 Ry
     estimated scf accuracy    <      91.97146893 Ry

     iteration #  4     ecut=    64.00 Ry     beta= 0.70
     Davidson diagonalization with overlap
     ethr =  1.00E-02,  avg # of iterations =  1.4

     negative rho (up, down):  1.526E-06 0.000E+00

     total cpu time spent up to now is       57.1 secs

     total energy              =   -3116.55671795 Ry
     estimated scf accuracy    <      54.51023545 Ry

     iteration #  5     ecut=    64.00 Ry     beta= 0.70
     Davidson diagonalization with overlap
     ethr =  1.00E-02,  avg # of iterations =  1.6

     negative rho (up, down):  1.071E-04 0.000E+00

     total cpu time spent up to now is       65.2 secs

     total energy              =   -3115.15267062 Ry
     estimated scf accuracy    <      42.23744569 Ry

     iteration #  6     ecut=    64.00 Ry     beta= 0.70
     Davidson diagonalization with overlap
     ethr =  1.00E-02,  avg # of iterations =  1.0

     negative rho (up, down):  4.149E-04 0.000E+00

     total cpu time spent up to now is       72.8 secs

     total energy              =   -3113.60152465 Ry
     estimated scf accuracy    <      26.14611620 Ry

     iteration #  7     ecut=    64.00 Ry     beta= 0.70
     Davidson diagonalization with overlap
     ethr =  1.00E-02,  avg # of iterations =  1.0

     negative rho (up, down):  1.098E-03 0.000E+00

     total cpu time spent up to now is       80.4 secs

     total energy              =   -3111.17377509 Ry
     estimated scf accuracy    <      18.26266587 Ry

     iteration #  8     ecut=    64.00 Ry     beta= 0.70
     Davidson diagonalization with overlap
     ethr =  1.00E-02,  avg # of iterations =  1.1

     negative rho (up, down):  1.520E-03 0.000E+00

     total cpu time spent up to now is       88.1 secs

     total energy              =   -3111.37740182 Ry
     estimated scf accuracy    <       5.62468662 Ry

     iteration #  9     ecut=    64.00 Ry     beta= 0.70
     Davidson diagonalization with overlap
     ethr =  3.20E-03,  avg # of iterations =  1.9

     negative rho (up, down):  2.138E-03 0.000E+00

     total cpu time spent up to now is       96.4 secs

     total energy              =   -3111.20888069 Ry
     estimated scf accuracy    <       3.89984905 Ry

     iteration # 10     ecut=    64.00 Ry     beta= 0.70
     Davidson diagonalization with overlap
     ethr =  2.22E-03,  avg # of iterations =  1.9

     negative rho (up, down):  5.131E-03 0.000E+00

     total cpu time spent up to now is      104.8 secs

     total energy              =   -3110.91916846 Ry
     estimated scf accuracy    <       1.51070917 Ry

     iteration # 11     ecut=    64.00 Ry     beta= 0.70
     Davidson diagonalization with overlap
     ethr =  8.58E-04,  avg # of iterations =  5.2

     negative rho (up, down):  4.157E-03 0.000E+00

     total cpu time spent up to now is      118.0 secs

     total energy              =   -3111.30776017 Ry
     estimated scf accuracy    <       4.11238802 Ry

     iteration # 12     ecut=    64.00 Ry     beta= 0.70
     Davidson diagonalization with overlap
     ethr =  8.58E-04,  avg # of iterations =  1.0

     negative rho (up, down):  1.965E-03 0.000E+00

     total cpu time spent up to now is      125.6 secs

     total energy              =   -3111.04243704 Ry
     estimated scf accuracy    <       1.57964354 Ry

     iteration # 13     ecut=    64.00 Ry     beta= 0.70
     Davidson diagonalization with overlap
     ethr =  8.58E-04,  avg # of iterations =  3.1

     negative rho (up, down):  2.932E-03 0.000E+00

     total cpu time spent up to now is      135.2 secs

     total energy              =   -3111.30676221 Ry
     estimated scf accuracy    <       1.32272896 Ry

     iteration # 14     ecut=    64.00 Ry     beta= 0.70
     Davidson diagonalization with overlap
     ethr =  7.52E-04,  avg # of iterations =  1.0

     negative rho (up, down):  3.425E-03 0.000E+00

     total cpu time spent up to now is      142.9 secs

     total energy              =   -3111.27961174 Ry
     estimated scf accuracy    <       0.50938001 Ry

     iteration # 15     ecut=    64.00 Ry     beta= 0.70
     Davidson diagonalization with overlap
     ethr =  2.89E-04,  avg # of iterations =  1.3

     negative rho (up, down):  3.453E-03 0.000E+00

     total cpu time spent up to now is      150.7 secs

     total energy              =   -3111.29534664 Ry
     estimated scf accuracy    <       0.04367278 Ry

     iteration # 16     ecut=    64.00 Ry     beta= 0.70
     Davidson diagonalization with overlap
     ethr =  2.48E-05,  avg # of iterations =  4.6

     negative rho (up, down):  3.590E-03 0.000E+00

     total cpu time spent up to now is      160.2 secs

     total energy              =   -3111.29373250 Ry
     estimated scf accuracy    <       0.03532049 Ry

     iteration # 17     ecut=    64.00 Ry     beta= 0.70
     Davidson diagonalization with overlap
     ethr =  2.01E-05,  avg # of iterations =  1.4

     negative rho (up, down):  3.739E-03 0.000E+00

     total cpu time spent up to now is      168.1 secs

     total energy              =   -3111.29238186 Ry
     estimated scf accuracy    <       0.01437562 Ry

     iteration # 18     ecut=    64.00 Ry     beta= 0.70
     Davidson diagonalization with overlap
     ethr =  8.17E-06,  avg # of iterations =  5.8

     negative rho (up, down):  3.739E-03 0.000E+00

     total cpu time spent up to now is      178.6 secs

     total energy              =   -3111.29384695 Ry
     estimated scf accuracy    <       0.00031754 Ry

     iteration # 19     ecut=    64.00 Ry     beta= 0.70
     Davidson diagonalization with overlap
     ethr =  1.80E-07,  avg # of iterations =  6.0

     negative rho (up, down):  3.719E-03 0.000E+00

     total cpu time spent up to now is      193.3 secs

     total energy              =   -3111.29399308 Ry
     estimated scf accuracy    <       0.00054329 Ry

     iteration # 20     ecut=    64.00 Ry     beta= 0.70
     Davidson diagonalization with overlap
     ethr =  1.80E-07,  avg # of iterations =  1.3

     negative rho (up, down):  3.726E-03 0.000E+00

     total cpu time spent up to now is      201.2 secs

     total energy              =   -3111.29401927 Ry
     estimated scf accuracy    <       0.00002425 Ry

     iteration # 21     ecut=    64.00 Ry     beta= 0.70
     Davidson diagonalization with overlap
     ethr =  1.38E-08,  avg # of iterations =  3.7

     negative rho (up, down):  3.720E-03 0.000E+00

     total cpu time spent up to now is      211.3 secs

     total energy              =   -3111.29401733 Ry
     estimated scf accuracy    <       0.00004471 Ry

     iteration # 22     ecut=    64.00 Ry     beta= 0.70
     Davidson diagonalization with overlap
     ethr =  1.38E-08,  avg # of iterations =  3.6

     negative rho (up, down):  3.720E-03 0.000E+00

     total cpu time spent up to now is      221.1 secs

     total energy              =   -3111.29402208 Ry
     estimated scf accuracy    <       0.00000505 Ry

     iteration # 23     ecut=    64.00 Ry     beta= 0.70
     Davidson diagonalization with overlap
     ethr =  2.87E-09,  avg # of iterations =  2.3

     negative rho (up, down):  3.721E-03 0.000E+00

     total cpu time spent up to now is      229.9 secs

     total energy              =   -3111.29402252 Ry
     estimated scf accuracy    <       0.00000035 Ry

     iteration # 24     ecut=    64.00 Ry     beta= 0.70
     Davidson diagonalization with overlap
     ethr =  1.98E-10,  avg # of iterations =  5.0

     negative rho (up, down):  3.721E-03 0.000E+00

     total cpu time spent up to now is      245.3 secs

     total energy              =   -3111.29402274 Ry
     estimated scf accuracy    <       0.00000007 Ry

     iteration # 25     ecut=    64.00 Ry     beta= 0.70
     Davidson diagonalization with overlap
     ethr =  3.70E-11,  avg # of iterations =  2.8

     negative rho (up, down):  3.721E-03 0.000E+00

     total cpu time spent up to now is      254.2 secs

     End of self-consistent calculation

          k = 0.0000 0.0000 0.0000 (  9343 PWs)   bands (ev):

   -70.7876 -70.7650 -70.7292 -70.7064 -70.7020 -70.7020 -70.7020 -70.7020
   -40.8799 -40.8657 -40.8304 -40.8151 -37.1887 -37.1188 -37.0059 -36.8886
   -36.8886 -36.8690 -36.8690 -36.8507 -36.8507 -36.7895 -36.7841 -36.7377
   -36.7377 -36.7364 -36.7364 -36.6387 -36.6387 -36.6377 -36.6347 -36.6347
   -36.6294 -36.6294 -36.6160 -36.6158 -17.1712 -17.1712 -17.1572 -17.1572
   -17.1567 -17.1550 -17.0160 -17.0130 -16.9979 -16.9979 -16.9833 -16.9833
     8.6206  10.6514  11.4295  12.0175  12.5092  12.6079  12.7688  12.7688
    12.9907  12.9907  13.2014  13.2960  13.3872  13.3872  13.8289  13.8289
    13.9685  13.9685  14.2107  14.2967  14.2967  14.3228  14.3228  14.7800
    14.7800  14.9140  15.3976  15.3976  15.5169  15.5169  15.8291  15.9136
    15.9136  15.9143  15.9143  16.0632  16.0632  16.0733  16.0742  16.1355
    16.1621  16.1621  16.2357  16.2784  16.2784  16.7325  16.7325  16.7574
    16.9924  16.9924  17.2891  17.2891  17.4926  17.4926  17.5114  17.5117
    17.7882  17.7882

          k = 0.0000 0.0000 0.0883 (  9314 PWs)   bands (ev):

   -70.7868 -70.7667 -70.7274 -70.7072 -70.7020 -70.7020 -70.7019 -70.7019
   -40.8794 -40.8667 -40.8294 -40.8157 -37.1862 -37.1252 -36.9958 -36.8882
   -36.8882 -36.8721 -36.8721 -36.8449 -36.8449 -36.8245 -36.7585 -36.7585
   -36.7509 -36.7158 -36.7158 -36.6426 -36.6426 -36.6412 -36.6330 -36.6330
   -36.6297 -36.6297 -36.6159 -36.6159 -17.1706 -17.1706 -17.1580 -17.1580
   -17.1564 -17.1549 -17.0161 -17.0133 -16.9971 -16.9971 -16.9840 -16.9840
     8.6772  10.3757  11.6630  12.0181  12.4193  12.7630  12.7787  12.7787
    12.9773  12.9773  13.0768  13.3838  13.4070  13.4070  13.8134  13.8134
    13.9533  13.9533  14.2013  14.2013  14.2598  14.4428  14.4428  14.8223
    14.8223  14.9398  15.3422  15.3422  15.4468  15.4468  15.7347  15.9043
    15.9241  15.9241  16.0025  16.0025  16.0553  16.0553  16.0772  16.1324
    16.1638  16.1638  16.2320  16.2320  16.3470  16.7859  16.7859  16.9215
    16.9860  16.9860  17.2835  17.2835  17.4930  17.4930  17.5114  17.5117
    17.7761  17.7761

          k = 0.0000 0.0000 0.1766 (  9296 PWs)   bands (ev):

   -70.7844 -70.7709 -70.7232 -70.7096 -70.7019 -70.7019 -70.7019 -70.7019
   -40.8778 -40.8692 -40.8267 -40.8174 -37.1796 -37.1395 -36.9712 -36.8868
   -36.8868 -36.8771 -36.8771 -36.8635 -36.8329 -36.8329 -36.7796 -36.7796
   -36.7185 -36.6960 -36.6960 -36.6515 -36.6510 -36.6510 -36.6313 -36.6313
   -36.6298 -36.6298 -36.6158 -36.6158 -17.1688 -17.1688 -17.1600 -17.1600
   -17.1558 -17.1547 -17.0161 -17.0142 -16.9950 -16.9950 -16.9859 -16.9859
     8.8448   9.9175  11.9396  12.0195  12.4194  12.8066  12.8066  12.9144
    12.9424  12.9424  12.9868  13.4237  13.4623  13.4623  13.7470  13.7470
    13.9519  13.9519  14.1136  14.1136  14.4224  14.6010  14.6010  14.9167
    14.9167  15.0106  15.2076  15.2076  15.3245  15.3245  15.5551  15.5887
    15.9494  15.9494  16.0311  16.0311  16.0856  16.0877  16.0877  16.1238
    16.1467  16.1467  16.2623  16.2623  16.5365  16.8363  16.8363  16.9860
    16.9860  17.2588  17.2588  17.2960  17.5115  17.5244  17.5244  17.6902
    17.7388  17.7388

          k = 0.0000 0.0000 0.2649 (  9344 PWs)   bands (ev):

   -70.7807 -70.7760 -70.7181 -70.7134 -70.7020 -70.7020 -70.7020 -70.7020
   -40.8754 -40.8724 -40.8233 -40.8200 -37.1694 -37.1554 -36.9387 -36.9020
   -36.8848 -36.8848 -36.8815 -36.8815 -36.8177 -36.8177 -36.7998 -36.7998
   -36.6907 -36.6781 -36.6781 -36.6681 -36.6630 -36.6630 -36.6305 -36.6305
   -36.6302 -36.6302 -36.6160 -36.6159 -17.1660 -17.1660 -17.1629 -17.1629
   -17.1551 -17.1547 -17.0158 -17.0151 -16.9920 -16.9920 -16.9887 -16.9887
     9.1169   9.4817  12.0182  12.0219  12.5768  12.7533  12.8480  12.8480
    12.8961  12.8961  13.2005  13.3579  13.5450  13.5450  13.6456  13.6456
    13.9859  13.9859  14.0418  14.0418  14.7104  14.7797  14.7797  14.9416
    14.9416  15.0168  15.1185  15.1185  15.2065  15.2065  15.3110  15.3845
    15.9833  15.9833  16.0137  16.0137  16.0697  16.0697  16.0838  16.0839
    16.0978  16.1114  16.4814  16.4814  16.6966  16.6966  16.8143  17.0944
    17.0944  17.1941  17.1977  17.1977  17.5115  17.5116  17.5972  17.5972
    17.6767  17.6767

          k = 0.0000 0.1650 0.0000 (  9304 PWs)   bands (ev):

   -70.7850 -70.7623 -70.7292 -70.7131 -70.7047 -70.7020 -70.7019 -70.6978
   -40.8779 -40.8635 -40.8327 -40.8173 -37.1725 -37.1028 -37.0038 -36.8878
   -36.8784 -36.8731 -36.8574 -36.8534 -36.8505 -36.7841 -36.7840 -36.7419
   -36.7382 -36.7378 -36.7363 -36.6513 -36.6459 -36.6444 -36.6371 -36.6351
   -36.6347 -36.6337 -36.6214 -36.6206 -17.1838 -17.1746 -17.1602 -17.1578
   -17.1540 -17.1379 -17.0286 -17.0099 -17.0019 -16.9948 -16.9801 -16.9772
     8.8170  10.8021  11.5617  12.1033  12.5402  12.6080  12.7432  12.7995
    12.9016  13.1137  13.1758  13.3867  13.4271  13.4340  13.7963  13.8686
    13.9712  14.0453  14.2611  14.2767  14.2925  14.3231  14.3517  14.6699
    14.7317  14.7545  15.1096  15.2840  15.2905  15.3162  15.5713  15.6560
    15.8174  15.8741  15.8887  15.9835  15.9859  16.0539  16.1090  16.2152
    16.2235  16.2847  16.3315  16.3797  16.4464  16.5612  16.8256  16.8914
    16.9428  16.9661  17.2994  17.3345  17.4145  17.4951  17.5135  17.5317
    17.5766  17.8804

          k = 0.0000 0.1650 0.0883 (  9313 PWs)   bands (ev):

   -70.7842 -70.7641 -70.7276 -70.7134 -70.7045 -70.7020 -70.7019 -70.6983
   -40.8773 -40.8646 -40.8316 -40.8178 -37.1704 -37.1096 -36.9938 -36.8873
   -36.8781 -36.8771 -36.8624 -36.8478 -36.8432 -36.8196 -36.7617 -36.7582
   -36.7500 -36.7194 -36.7163 -36.6525 -36.6467 -36.6466 -36.6384 -36.6358
   -36.6350 -36.6347 -36.6213 -36.6206 -17.1828 -17.1739 -17.1610 -17.1605
   -17.1518 -17.1384 -17.0280 -17.0121 -16.9994 -16.9940 -16.9808 -16.9781
     8.8726  10.5346  11.7865  12.1039  12.4557  12.6741  12.8008  12.8126
    12.9071  13.0931  13.1449  13.3686  13.4493  13.4713  13.7918  13.8578
    13.9472  14.0207  14.1638  14.2277  14.3067  14.4263  14.4717  14.7156
    14.7704  14.7797  15.1010  15.2359  15.2569  15.2925  15.5996  15.6190
    15.7393  15.8340  15.8896  15.9519  16.0141  16.0415  16.1131  16.1847
    16.2159  16.2696  16.3250  16.3820  16.4526  16.6565  16.8193  16.9337
    16.9452  17.0261  17.2925  17.3546  17.4047  17.4721  17.5258  17.5628
    17.5702  17.8634

          k = 0.0000 0.1650 0.1766 (  9308 PWs)   bands (ev):

   -70.7818 -70.7683 -70.7239 -70.7145 -70.7040 -70.7020 -70.7019 -70.6997
   -40.8758 -40.8672 -40.8288 -40.8195 -37.1640 -37.1243 -36.9695 -36.8878
   -36.8843 -36.8770 -36.8680 -36.8530 -36.8356 -36.8309 -36.7824 -36.7789
   -36.7196 -36.7008 -36.6967 -36.6565 -36.6536 -36.6514 -36.6411 -36.6392
   -36.6350 -36.6348 -36.6211 -36.6207 -17.1798 -17.1720 -17.1651 -17.1631
   -17.1485 -17.1398 -17.0264 -17.0161 -16.9947 -16.9918 -16.9827 -16.9807
     9.0372  10.0880  12.0509  12.1063  12.4452  12.7131  12.8120  12.8501
    13.0411  13.0411  13.0565  13.3846  13.4940  13.5093  13.7377  13.8014
    13.9416  13.9997  14.0866  14.1418  14.4142  14.6021  14.6241  14.8160
    14.8464  14.8486  15.0616  15.1565  15.1695  15.2173  15.4440  15.5248
    15.7115  15.8326  15.8931  15.9291  15.9490  16.0657  16.0988  16.1245
    16.1839  16.2709  16.3162  16.4638  16.5022  16.7433  16.7751  16.8644
    17.0294  17.1994  17.2686  17.4049  17.4143  17.4898  17.5476  17.5694
    17.5799  17.8142

          k = 0.0000 0.1650 0.2649 (  9322 PWs)   bands (ev):

   -70.7781 -70.7733 -70.7198 -70.7165 -70.7029 -70.7020 -70.7020 -70.7015
   -40.8734 -40.8704 -40.8254 -40.8222 -37.1538 -37.1401 -36.9390 -36.9078
   -36.8816 -36.8751 -36.8740 -36.8722 -36.8203 -36.8159 -36.8024 -36.7984
   -36.6951 -36.6877 -36.6793 -36.6647 -36.6635 -36.6620 -36.6419 -36.6411
   -36.6349 -36.6349 -36.6210 -36.6208 -17.1754 -17.1703 -17.1693 -17.1661
   -17.1452 -17.1422 -17.0237 -17.0202 -16.9896 -16.9888 -16.9856 -16.9847
     9.3042   9.6617  12.1095  12.1156  12.5762  12.6856  12.8451  12.9069
    12.9420  12.9743  13.2184  13.3481  13.5397  13.5967  13.6357  13.7009
    13.9804  14.0230  14.0295  14.0735  14.6168  14.7767  14.7782  14.8391
    14.8780  14.9384  14.9843  15.0547  15.1020  15.1363  15.3035  15.3276
    15.7985  15.8543  15.8691  15.8944  15.9258  15.9790  16.0907  16.0950
    16.2084  16.2458  16.4362  16.5805  16.5912  16.6632  16.6910  16.7529
    17.1340  17.2182  17.3398  17.4012  17.4581  17.4892  17.5069  17.5307
    17.6487  17.7387

          k = 0.0000 0.3299 0.0000 (  9288 PWs)   bands (ev):

   -70.7781 -70.7551 -70.7291 -70.7234 -70.7119 -70.7019 -70.7019 -70.6944
   -40.8723 -40.8576 -40.8387 -40.8232 -37.1308 -37.0620 -36.9995 -36.8953
   -36.8764 -36.8589 -36.8511 -36.8505 -36.8261 -36.7839 -36.7747 -36.7522
   -36.7405 -36.7385 -36.7366 -36.6939 -36.6746 -36.6707 -36.6590 -36.6426
   -36.6345 -36.6265 -36.6261 -36.6235 -17.1933 -17.1817 -17.1666 -17.1650
   -17.1460 -17.1131 -17.0507 -17.0115 -17.0022 -16.9881 -16.9733 -16.9709
     9.3807  11.2062  11.9131  12.1665  12.4682  12.5904  12.6102  12.8985
    13.0097  13.0439  13.4269  13.5174  13.5430  13.6585  13.6848  13.9363
    13.9687  14.1603  14.2524  14.2750  14.3379  14.3424  14.4591  14.4657
    14.5141  14.5971  14.6030  14.9023  14.9032  15.0222  15.1436  15.2006
    15.3416  15.5546  15.7297  15.9618  16.1034  16.1222  16.1439  16.1572
    16.1919  16.3019  16.5328  16.5376  16.6289  16.6766  16.6872  16.9361
    16.9510  16.9554  17.0381  17.3103  17.3258  17.5924  17.6367  17.6951
    17.7344  18.1506

          k = 0.0000 0.3299 0.0883 (  9293 PWs)   bands (ev):

   -70.7773 -70.7569 -70.7282 -70.7235 -70.7110 -70.7020 -70.7019 -70.6952
   -40.8719 -40.8589 -40.8374 -40.8237 -37.1288 -37.0700 -36.9890 -36.8974
   -36.8781 -36.8534 -36.8512 -36.8506 -36.8238 -36.8086 -36.7700 -36.7569
   -36.7493 -36.7276 -36.7185 -36.6928 -36.6730 -36.6712 -36.6586 -36.6449
   -36.6370 -36.6287 -36.6258 -36.6235 -17.1920 -17.1810 -17.1674 -17.1665
   -17.1447 -17.1152 -17.0485 -17.0148 -16.9989 -16.9873 -16.9740 -16.9721
     9.4330  10.9710  12.0614  12.2149  12.4313  12.5851  12.6593  12.9179
    12.9770  13.1006  13.3780  13.4696  13.5797  13.6622  13.7149  13.9210
    13.9617  14.1080  14.2128  14.2811  14.3011  14.3519  14.4797  14.5114
    14.5381  14.6317  14.7053  14.8847  14.8904  15.0521  15.1360  15.2200
    15.3144  15.5610  15.7296  15.8814  16.0443  16.0571  16.1182  16.1752
    16.1927  16.3307  16.4498  16.5473  16.6310  16.6893  16.7291  16.8870
    16.9693  17.0227  17.1241  17.2922  17.3247  17.5268  17.6105  17.6580
    17.9080  18.1266

          k = 0.0000 0.3299 0.1766 (  9296 PWs)   bands (ev):

   -70.7749 -70.7613 -70.7264 -70.7237 -70.7084 -70.7020 -70.7019 -70.6973
   -40.8704 -40.8618 -40.8344 -40.8253 -37.1231 -37.0855 -36.9665 -36.9048
   -36.8775 -36.8511 -36.8508 -36.8417 -36.8361 -36.8172 -36.7890 -36.7755
   -36.7292 -36.7151 -36.7012 -36.6877 -36.6732 -36.6678 -36.6572 -36.6516
   -36.6426 -36.6361 -36.6248 -36.6236 -17.1883 -17.1790 -17.1706 -17.1696
   -17.1409 -17.1208 -17.0430 -17.0210 -16.9929 -16.9852 -16.9760 -16.9753
     9.5878  10.5653  12.1394  12.3122  12.4645  12.6126  12.7285  12.9633
    12.9742  13.1576  13.2801  13.3790  13.6506  13.6695  13.7524  13.9088
    13.9254  14.0548  14.1457  14.2170  14.2716  14.4208  14.5454  14.5986
    14.6145  14.6831  14.7744  14.8863  14.9130  15.0799  15.1130  15.2491
    15.3041  15.5939  15.7241  15.7720  15.9226  15.9526  16.0173  16.0579
    16.2278  16.3672  16.3882  16.6008  16.6294  16.6988  16.7258  16.8614
    17.0049  17.0999  17.2051  17.2936  17.3284  17.4915  17.6135  17.7286
    17.9510  18.0567

          k = 0.0000 0.3299 0.2649 (  9305 PWs)   bands (ev):

   -70.7712 -70.7664 -70.7250 -70.7242 -70.7047 -70.7020 -70.7019 -70.7007
   -40.8681 -40.8651 -40.8309 -40.8278 -37.1136 -37.1008 -36.9414 -36.9195
   -36.8717 -36.8586 -36.8510 -36.8509 -36.8259 -36.8083 -36.8065 -36.7923
   -36.7165 -36.7118 -36.6872 -36.6779 -36.6759 -36.6624 -36.6586 -36.6543
   -36.6492 -36.6469 -36.6242 -36.6239 -17.1827 -17.1764 -17.1761 -17.1727
   -17.1350 -17.1279 -17.0358 -17.0281 -16.9864 -16.9821 -16.9803 -16.9788
     9.8382  10.1715  12.1841  12.2448  12.5924  12.6299  12.8274  12.9220
    13.0610  13.1679  13.2156  13.2918  13.6854  13.7236  13.7405  13.8412
    13.9618  14.0135  14.1337  14.1655  14.3181  14.4220  14.5951  14.6450
    14.6582  14.6848  14.8325  14.8795  14.9940  15.0616  15.1112  15.1751
    15.4629  15.6464  15.6719  15.7629  15.7882  15.8712  15.8773  15.9247
    16.2864  16.3440  16.4431  16.5664  16.6579  16.6881  16.7198  16.8109
    17.0589  17.1293  17.1806  17.2714  17.4342  17.5498  17.6294  17.8204
    17.8391  17.9547

          k = 0.0000 0.4949 0.0000 (  9286 PWs)   bands (ev):

   -70.7707 -70.7467 -70.7324 -70.7291 -70.7203 -70.7020 -70.7019 -70.6928
   -40.8656 -40.8505 -40.8459 -40.8303 -37.0879 -37.0187 -36.9957 -36.9229
   -36.8640 -36.8625 -36.8505 -36.8213 -36.7856 -36.7835 -36.7726 -36.7546
   -36.7515 -36.7409 -36.7366 -36.7362 -36.7105 -36.6945 -36.6862 -36.6477
   -36.6345 -36.6278 -36.6240 -36.6208 -17.1959 -17.1871 -17.1721 -17.1714
   -17.1379 -17.0955 -17.0676 -17.0205 -16.9949 -16.9831 -16.9695 -16.9682
    10.2021  11.3192  11.8809  12.2805  12.2960  12.6162  12.7713  12.9285
    13.0018  13.1759  13.6046  13.6364  13.6804  13.8277  13.8601  13.9581
    14.0287  14.0506  14.1840  14.1959  14.3450  14.3936  14.4074  14.4478
    14.5022  14.5363  14.5433  14.5695  14.5887  14.6527  14.6741  14.7205
    14.8982  15.1477  15.7326  16.0544  16.0619  16.1271  16.1870  16.2119
    16.2417  16.2767  16.3185  16.6371  16.6736  16.8142  16.8335  16.8495
    16.9250  17.0319  17.1263  17.3911  17.4080  17.5289  17.5935  17.6614
    17.8158  18.2470

          k = 0.0000 0.4949 0.0883 (  9294 PWs)   bands (ev):

   -70.7699 -70.7486 -70.7324 -70.7302 -70.7173 -70.7020 -70.7019 -70.6937
   -40.8652 -40.8528 -40.8436 -40.8307 -37.0862 -37.0303 -36.9831 -36.9239
   -36.8678 -36.8546 -36.8489 -36.8225 -36.7975 -36.7850 -36.7787 -36.7543
   -36.7523 -36.7504 -36.7267 -36.7242 -36.7107 -36.6888 -36.6837 -36.6501
   -36.6374 -36.6268 -36.6240 -36.6234 -17.1945 -17.1864 -17.1726 -17.1722
   -17.1376 -17.1010 -17.0622 -17.0217 -16.9937 -16.9823 -16.9707 -16.9689
    10.2477  11.3136  11.7055  12.2151  12.4775  12.6366  12.7692  12.9015
    13.0267  13.1872  13.5673  13.6278  13.6920  13.8428  13.8811  13.9553
    14.0330  14.0373  14.1556  14.1802  14.2778  14.3555  14.4258  14.4340
    14.5234  14.5360  14.5521  14.5613  14.5878  14.7202  14.7527  14.7603
    14.9240  15.1815  15.7337  15.9856  16.0193  16.1213  16.1244  16.1485
    16.2068  16.2469  16.4560  16.6771  16.7028  16.7348  16.7888  16.7993
    16.8955  17.1456  17.2238  17.3411  17.3446  17.4615  17.7052  17.7670
    17.8183  18.2273

          k = 0.0000 0.4949 0.1766 (  9298 PWs)   bands (ev):

   -70.7674 -70.7532 -70.7324 -70.7314 -70.7116 -70.7020 -70.7019 -70.6963
   -40.8640 -40.8562 -40.8401 -40.8320 -37.0811 -37.0465 -36.9638 -36.9275
   -36.8669 -36.8447 -36.8430 -36.8261 -36.8209 -36.7943 -36.7831 -36.7642
   -36.7521 -36.7503 -36.7185 -36.7112 -36.7039 -36.6761 -36.6752 -36.6572
   -36.6445 -36.6313 -36.6255 -36.6241 -17.1906 -17.1843 -17.1747 -17.1745
   -17.1356 -17.1114 -17.0519 -17.0257 -16.9900 -16.9801 -16.9740 -16.9709
    10.3818  11.1661  11.6013  12.0665  12.6682  12.7068  12.7643  12.8751
    13.0992  13.2151  13.4922  13.5036  13.7741  13.8740  13.9027  13.9291
    14.0039  14.0616  14.0819  14.1837  14.2899  14.3081  14.3894  14.4104
    14.4989  14.5151  14.5263  14.6190  14.6280  14.7963  14.8130  14.8350
    15.0952  15.3032  15.7308  15.8414  15.9037  15.9887  16.0194  16.0696
    16.2239  16.2564  16.5372  16.6067  16.7271  16.7400  16.7952  16.8011
    16.8527  17.1979  17.2243  17.3655  17.4166  17.4212  17.7612  17.8451
    17.9939  18.0942

          k = 0.0000 0.4949 0.2649 (  9302 PWs)   bands (ev):

   -70.7635 -70.7586 -70.7322 -70.7320 -70.7056 -70.7020 -70.7019 -70.7003
   -40.8621 -40.8594 -40.8368 -40.8341 -37.0727 -37.0611 -36.9467 -36.9345
   -36.8590 -36.8433 -36.8384 -36.8317 -36.8278 -36.8115 -36.7795 -36.7735
   -36.7509 -36.7504 -36.7142 -36.7121 -36.6847 -36.6691 -36.6654 -36.6587
   -36.6541 -36.6434 -36.6248 -36.6244 -17.1850 -17.1813 -17.1791 -17.1778
   -17.1303 -17.1219 -17.0415 -17.0325 -16.9848 -16.9790 -16.9771 -16.9737
    10.5961  10.8730  11.7063  11.8798  12.7112  12.7389  12.8362  12.8701
    13.2126  13.2814  13.3543  13.3845  13.8433  13.8851  13.9139  13.9300
    13.9595  13.9901  14.1227  14.1912  14.3064  14.3398  14.3438  14.3820
    14.4960  14.5080  14.5127  14.5796  14.7110  14.7788  14.8635  14.8814
    15.3644  15.4973  15.6240  15.6885  15.8209  15.8618  15.9284  15.9734
    16.2521  16.2635  16.5950  16.6069  16.6666  16.6839  16.8130  16.8307
    16.9305  17.0800  17.2587  17.3104  17.5670  17.6068  17.6881  17.8439
    17.9701  18.0885

          k = 0.1429 0.2474 0.0000 (  9313 PWs)   bands (ev):

   -70.7802 -70.7573 -70.7291 -70.7206 -70.7097 -70.7020 -70.7019 -70.6951
   -40.8741 -40.8594 -40.8369 -40.8214 -37.1431 -37.0740 -37.0007 -36.8870
   -36.8857 -36.8573 -36.8572 -36.8510 -36.8349 -36.7840 -36.7765 -36.7497
   -36.7392 -36.7389 -36.7371 -36.6842 -36.6720 -36.6484 -36.6420 -36.6400
   -36.6357 -36.6319 -36.6306 -36.6281 -17.1907 -17.1814 -17.1660 -17.1626
   -17.1469 -17.1185 -17.0453 -17.0100 -17.0045 -16.9890 -16.9741 -16.9729
     9.1975  11.0847  11.8030  12.2233  12.5738  12.5741  12.5869  12.8506
    12.9803  13.0595  13.2914  13.4691  13.5249  13.5908  13.7386  13.9093
    13.9644  14.1659  14.1862  14.2815  14.3324  14.3959  14.4347  14.5144
    14.5314  14.6362  14.7670  14.9241  15.0558  15.1049  15.2609  15.4370
    15.5260  15.5910  15.8096  15.8280  15.9598  16.1009  16.1908  16.1973
    16.2102  16.2937  16.4693  16.5457  16.6278  16.6508  16.7395  16.8534
    16.9580  17.1006  17.1915  17.3036  17.3098  17.3229  17.6964  17.7373
    17.7492  17.8386

          k = 0.1429 0.2474 0.0883 (  9299 PWs)   bands (ev):

   -70.7794 -70.7591 -70.7279 -70.7207 -70.7091 -70.7020 -70.7019 -70.6958
   -40.8736 -40.8606 -40.8357 -40.8219 -37.1411 -37.0815 -36.9904 -36.8896
   -36.8860 -36.8583 -36.8521 -36.8511 -36.8314 -36.8117 -36.7659 -36.7599
   -36.7484 -36.7243 -36.7186 -36.6838 -36.6711 -36.6497 -36.6437 -36.6402
   -36.6368 -36.6325 -36.6305 -36.6295 -17.1895 -17.1807 -17.1668 -17.1643
   -17.1455 -17.1201 -17.0438 -17.0140 -17.0004 -16.9882 -16.9748 -16.9740
     9.2510  10.8351  12.0080  12.2231  12.5109  12.5795  12.6137  12.9411
    12.9812  13.0621  13.2602  13.4299  13.5503  13.5999  13.7413  13.9095
    13.9485  14.1154  14.1370  14.2571  14.3753  14.3778  14.5055  14.5406
    14.5821  14.6716  14.8107  14.9372  15.0291  15.0907  15.2941  15.4121
    15.4881  15.6002  15.7708  15.8117  15.9255  16.0712  16.1446  16.1986
    16.2075  16.2935  16.3963  16.5836  16.6013  16.6910  16.7650  16.8360
    17.0129  17.1144  17.2330  17.2777  17.3377  17.3531  17.6127  17.7335
    17.7968  17.8376

          k = 0.1429 0.2474 0.1766 (  9301 PWs)   bands (ev):

   -70.7770 -70.7635 -70.7255 -70.7211 -70.7072 -70.7020 -70.7019 -70.6979
   -40.8721 -40.8634 -40.8327 -40.8235 -37.1352 -37.0967 -36.9674 -36.8995
   -36.8831 -36.8583 -36.8542 -36.8410 -36.8393 -36.8227 -36.7865 -36.7777
   -36.7250 -36.7094 -36.7002 -36.6819 -36.6680 -36.6543 -36.6495 -36.6411
   -36.6401 -36.6365 -36.6304 -36.6304 -17.1859 -17.1787 -17.1691 -17.1686
   -17.1417 -17.1244 -17.0395 -17.0201 -16.9943 -16.9860 -16.9771 -16.9767
     9.4092  10.4133  12.2253  12.2445  12.4693  12.5907  12.6885  12.9979
    13.0375  13.0951  13.1900  13.3651  13.6035  13.6097  13.7213  13.8866
    13.9485  14.0403  14.0989  14.1746  14.3621  14.5062  14.5997  14.6038
    14.6870  14.7302  14.8879  14.9564  14.9787  15.0683  15.3187  15.3451
    15.4258  15.6226  15.7169  15.8143  15.8732  15.9755  16.0569  16.0574
    16.1925  16.2994  16.4289  16.5772  16.6376  16.7017  16.7083  16.8301
    17.1165  17.1613  17.2502  17.3439  17.3746  17.4358  17.5473  17.6984
    17.7281  17.8704

          k = 0.1429 0.2474 0.2649 (  9313 PWs)   bands (ev):

   -70.7733 -70.7685 -70.7233 -70.7219 -70.7043 -70.7020 -70.7019 -70.7009
   -40.8697 -40.8667 -40.8293 -40.8261 -37.1255 -37.1123 -36.9405 -36.9162
   -36.8769 -36.8647 -36.8565 -36.8558 -36.8241 -36.8105 -36.8061 -36.7952
   -36.7092 -36.7038 -36.6841 -36.6776 -36.6629 -36.6615 -36.6563 -36.6502
   -36.6398 -36.6388 -36.6304 -36.6304 -17.1807 -17.1761 -17.1740 -17.1722
   -17.1363 -17.1302 -17.0335 -17.0268 -16.9879 -16.9832 -16.9817 -16.9796
     9.6655  10.0075  12.2372  12.2630  12.5479  12.5903  12.8137  12.9467
    13.0425  13.1107  13.2284  13.3129  13.6099  13.6509  13.7027  13.8012
    13.9898  14.0161  14.0898  14.1181  14.4228  14.5231  14.6835  14.6946
    14.7497  14.7620  14.9181  14.9460  15.0066  15.0431  15.2164  15.2523
    15.5285  15.6253  15.7533  15.8244  15.8374  15.8704  15.8956  15.9383
    16.2327  16.2857  16.4861  16.5863  16.6347  16.6753  16.7022  16.7530
    17.2017  17.2391  17.2728  17.2948  17.4684  17.4969  17.5562  17.6246
    17.7178  17.7916

          k = 0.1429 0.4124 0.0000 (  9304 PWs)   bands (ev):

   -70.7726 -70.7490 -70.7302 -70.7291 -70.7180 -70.7020 -70.7019 -70.6931
   -40.8675 -40.8525 -40.8440 -40.8284 -37.0966 -37.0282 -36.9966 -36.9148
   -36.8844 -36.8608 -36.8521 -36.8235 -36.7969 -36.7838 -36.7692 -36.7558
   -36.7452 -36.7398 -36.7391 -36.7337 -36.6926 -36.6748 -36.6663 -36.6443
   -36.6376 -36.6371 -36.6360 -36.6221 -17.1940 -17.1890 -17.1734 -17.1705
   -17.1349 -17.0957 -17.0664 -17.0230 -16.9962 -16.9818 -16.9724 -16.9662
     9.9012  11.5300  11.9628  12.1757  12.4190  12.5875  12.6287  12.8958
    12.9047  13.1041  13.5646  13.6380  13.7002  13.7225  13.7696  13.9143
    13.9232  14.1157  14.2570  14.2715  14.3333  14.3855  14.4051  14.4369
    14.4574  14.4895  14.5467  14.6609  14.6856  14.8387  14.8645  14.9114
    15.1186  15.2740  15.6817  15.8275  15.9836  16.0325  16.1312  16.2322
    16.3355  16.3531  16.4380  16.5680  16.6343  16.7388  16.7764  16.9941
    17.0348  17.0971  17.1356  17.3008  17.3175  17.4167  17.7326  17.7822
    17.9291  18.0152

          k = 0.1429 0.4124 0.0883 (  9299 PWs)   bands (ev):

   -70.7718 -70.7509 -70.7302 -70.7294 -70.7158 -70.7020 -70.7019 -70.6940
   -40.8670 -40.8542 -40.8421 -40.8288 -37.0949 -37.0384 -36.9850 -36.9167
   -36.8835 -36.8571 -36.8506 -36.8243 -36.8007 -36.7962 -36.7726 -36.7625
   -36.7477 -36.7404 -36.7254 -36.7228 -36.6884 -36.6746 -36.6658 -36.6467
   -36.6400 -36.6370 -36.6355 -36.6246 -17.1927 -17.1881 -17.1743 -17.1709
   -17.1346 -17.1006 -17.0616 -17.0240 -16.9951 -16.9810 -16.9735 -16.9670
     9.9498  11.3422  11.9409  12.3306  12.4309  12.5698  12.6298  12.8691
    12.9739  13.1239  13.5101  13.5902  13.7165  13.7615  13.7910  13.9065
    13.9514  14.0956  14.1639  14.2230  14.3257  14.3689  14.3956  14.4347
    14.4872  14.5180  14.6343  14.6475  14.7240  14.8405  14.9100  14.9454
    15.1241  15.2848  15.6799  15.7921  15.9210  16.0191  16.1407  16.1717
    16.2516  16.3235  16.4890  16.5953  16.6486  16.6929  16.8414  16.9622
    17.0169  17.0890  17.2626  17.2695  17.3188  17.3990  17.6309  17.8668
    17.9501  18.0297

          k = 0.1429 0.4124 0.1766 (  9308 PWs)   bands (ev):

   -70.7694 -70.7554 -70.7302 -70.7298 -70.7110 -70.7020 -70.7019 -70.6965
   -40.8657 -40.8576 -40.8388 -40.8302 -37.0897 -37.0545 -36.9652 -36.9224
   -36.8789 -36.8486 -36.8466 -36.8280 -36.8231 -36.7965 -36.7883 -36.7729
   -36.7441 -36.7403 -36.7082 -36.7058 -36.6799 -36.6717 -36.6640 -36.6536
   -36.6453 -36.6379 -36.6352 -36.6309 -17.1893 -17.1857 -17.1768 -17.1727
   -17.1328 -17.1103 -17.0521 -17.0276 -16.9918 -16.9788 -16.9766 -16.9690
    10.0935  10.9870  11.9825  12.3028  12.5312  12.6149  12.6838  12.8553
    13.0741  13.1722  13.4118  13.4837  13.7471  13.7838  13.8559  13.9201
    13.9687  14.0430  14.0844  14.1764  14.2772  14.3170  14.4218  14.4334
    14.5177  14.5676  14.6209  14.6616  14.8237  14.9074  14.9205  15.0615
    15.1779  15.3522  15.6717  15.6983  15.8205  15.9367  16.0310  16.1022
    16.1668  16.2822  16.5566  16.5844  16.6815  16.7077  16.8327  16.9507
    17.0624  17.1014  17.2587  17.3005  17.3388  17.4251  17.6119  17.8534
    17.8967  18.1200

          k = 0.1429 0.4124 0.2649 (  9299 PWs)   bands (ev):

   -70.7655 -70.7607 -70.7302 -70.7301 -70.7054 -70.7020 -70.7019 -70.7004
   -40.8636 -40.8608 -40.8354 -40.8324 -37.0810 -37.0691 -36.9466 -36.9321
   -36.8683 -36.8512 -36.8418 -36.8391 -36.8226 -36.8099 -36.7889 -36.7825
   -36.7418 -36.7407 -36.6962 -36.6941 -36.6738 -36.6636 -36.6616 -36.6597
   -36.6517 -36.6454 -36.6350 -36.6345 -17.1849 -17.1820 -17.1800 -17.1765
   -17.1280 -17.1201 -17.0423 -17.0338 -16.9869 -16.9815 -16.9755 -16.9721
    10.3249  10.6307  12.0690  12.1827  12.5914  12.6254  12.7884  12.8350
    13.1920  13.2480  13.3062  13.3596  13.7827  13.7949  13.8585  13.9078
    13.9891  14.0202  14.0853  14.1720  14.2438  14.2812  14.4211  14.4357
    14.5319  14.5653  14.6215  14.6624  14.8653  14.9108  15.0262  15.0633
    15.3627  15.4587  15.6413  15.6683  15.6832  15.7860  15.9421  15.9762
    16.2032  16.2441  16.6153  16.6220  16.6638  16.6781  16.8424  16.9007
    17.1219  17.1444  17.2246  17.2537  17.4184  17.4768  17.6859  17.7685
    17.9046  17.9901

          k = 0.1429 0.5774 0.0000 (  9286 PWs)   bands (ev):

   -70.7681 -70.7432 -70.7355 -70.7291 -70.7238 -70.7020 -70.7019 -70.6924
   -40.8626 -40.8491 -40.8473 -40.8335 -37.0685 -36.9972 -36.9947 -36.9420
   -36.8819 -36.8622 -36.8526 -36.7997 -36.7839 -36.7725 -36.7716 -36.7689
   -36.7546 -36.7447 -36.7406 -36.7238 -36.7140 -36.6913 -36.6887 -36.6464
   -36.6384 -36.6376 -36.6361 -36.6197 -17.1962 -17.1892 -17.1766 -17.1755
   -17.1273 -17.0841 -17.0775 -17.0309 -16.9913 -16.9788 -16.9739 -16.9629
    10.5921  11.1831  12.1030  12.1919  12.3761  12.6528  12.6785  12.8174
    12.9354  13.1552  13.6844  13.7007  13.8249  13.8655  13.8975  13.9388
    13.9623  14.0648  14.0695  14.0989  14.1913  14.3197  14.3689  14.3993
    14.5036  14.5062  14.5396  14.5418  14.6750  14.6814  14.7298  14.8297
    14.8509  15.0418  15.7010  15.8054  15.8759  16.0212  16.0967  16.1367
    16.3656  16.4275  16.4317  16.6551  16.7103  16.7153  16.9238  16.9257
    17.0583  17.1414  17.1824  17.1985  17.3458  17.5036  17.7057  17.7306
    17.9788  18.1134

          k = 0.1429 0.5774 0.0883 (  9287 PWs)   bands (ev):

   -70.7672 -70.7450 -70.7355 -70.7320 -70.7192 -70.7020 -70.7019 -70.6933
   -40.8622 -40.8516 -40.8448 -40.8339 -37.0669 -37.0136 -36.9783 -36.9423
   -36.8808 -36.8586 -36.8509 -36.8023 -36.7934 -36.7812 -36.7737 -36.7730
   -36.7533 -36.7432 -36.7305 -36.7207 -36.7112 -36.6868 -36.6860 -36.6490
   -36.6407 -36.6374 -36.6357 -36.6222 -17.1951 -17.1882 -17.1777 -17.1752
   -17.1277 -17.0946 -17.0671 -17.0310 -16.9909 -16.9779 -16.9749 -16.9636
    10.6328  11.2146  11.8855  12.1400  12.5544  12.6228  12.6855  12.8338
    12.9650  13.1749  13.6549  13.7047  13.7955  13.8408  13.9081  13.9242
    14.0024  14.0498  14.0785  14.1200  14.1780  14.2433  14.3415  14.3614
    14.4578  14.5270  14.5629  14.6245  14.6464  14.7418  14.7720  14.8040
    14.9348  15.0945  15.6929  15.7940  15.8334  16.0103  16.0674  16.1290
    16.2789  16.3296  16.5685  16.6422  16.6798  16.7729  16.8177  16.9211
    17.0898  17.1600  17.1670  17.2855  17.3066  17.4988  17.6962  17.8368
    17.9755  18.0682

          k = 0.1429 0.5774 0.1766 (  9294 PWs)   bands (ev):

   -70.7646 -70.7497 -70.7354 -70.7341 -70.7123 -70.7019 -70.7019 -70.6960
   -40.8612 -40.8547 -40.8417 -40.8349 -37.0622 -37.0296 -36.9630 -36.9436
   -36.8751 -36.8498 -36.8459 -36.8173 -36.8091 -36.7963 -36.7751 -36.7741
   -36.7518 -36.7468 -36.7174 -36.7167 -36.7007 -36.6783 -36.6745 -36.6561
   -36.6465 -36.6378 -36.6355 -36.6291 -17.1922 -17.1853 -17.1803 -17.1754
   -17.1277 -17.1070 -17.0550 -17.0325 -16.9895 -16.9779 -16.9756 -16.9657
    10.7523  11.2797  11.6098  11.9836  12.6026  12.6398  12.7831  12.8584
    13.0702  13.2215  13.5652  13.5958  13.8336  13.8642  13.8822  13.9235
    13.9644  14.0639  14.0997  14.1208  14.1671  14.2303  14.2909  14.3377
    14.3832  14.5582  14.5837  14.5890  14.6574  14.7532  14.8658  14.8838
    15.1214  15.2442  15.6685  15.7200  15.7438  15.9194  16.0591  16.1072
    16.1669  16.2184  16.6026  16.6370  16.6664  16.8198  16.8350  16.8690
    17.0447  17.2133  17.2249  17.2336  17.4113  17.4662  17.7322  17.9245
    18.0255  18.0368

          k = 0.1429 0.5774 0.2649 (  9295 PWs)   bands (ev):

   -70.7606 -70.7554 -70.7353 -70.7349 -70.7058 -70.7019 -70.7019 -70.7002
   -40.8596 -40.8574 -40.8389 -40.8366 -37.0543 -37.0433 -36.9523 -36.9464
   -36.8620 -36.8419 -36.8402 -36.8395 -36.8155 -36.8106 -36.7751 -36.7748
   -36.7505 -36.7490 -36.7147 -36.7145 -36.6839 -36.6713 -36.6638 -36.6597
   -36.6545 -36.6444 -36.6353 -36.6346 -17.1883 -17.1841 -17.1813 -17.1775
   -17.1247 -17.1175 -17.0446 -17.0368 -16.9864 -16.9821 -16.9724 -16.9688
    10.9410  11.1707  11.5879  11.7733  12.6152  12.6326  12.8575  12.8724
    13.2329  13.2869  13.4495  13.4537  13.8692  13.8697  13.8997  13.9241
    13.9342  13.9693  14.1317  14.1811  14.1998  14.2403  14.2833  14.2971
    14.3597  14.4536  14.6153  14.6390  14.6504  14.7055  14.9474  14.9596
    15.3547  15.4225  15.5996  15.6118  15.6685  15.7675  16.0715  16.0855
    16.0950  16.1323  16.6073  16.6262  16.7075  16.7567  16.8800  16.9341
    17.0051  17.1044  17.3045  17.3320  17.4258  17.4470  17.8107  17.8643
    17.9898  18.0124

          k = 0.2857 0.4949 0.0000 (  9296 PWs)   bands (ev):

   -70.7667 -70.7412 -70.7370 -70.7291 -70.7259 -70.7020 -70.7019 -70.6923
   -40.8605 -40.8512 -40.8452 -40.8357 -37.0537 -36.9942 -36.9837 -36.9513
   -36.9073 -36.8602 -36.8560 -36.7914 -36.7822 -36.7797 -36.7675 -36.7622
   -36.7558 -36.7509 -36.7461 -36.7195 -36.6903 -36.6762 -36.6756 -36.6672
   -36.6603 -36.6430 -36.6387 -36.6195 -17.1979 -17.1881 -17.1804 -17.1785
   -17.1156 -17.0880 -17.0720 -17.0428 -16.9878 -16.9777 -16.9757 -16.9600
    10.6271  11.6317  11.8341  12.2626  12.3829  12.6508  12.7060  12.7098
    12.7640  13.1109  13.7685  13.7951  13.8143  13.8250  13.8501  13.9026
    13.9754  14.0267  14.0597  14.1316  14.1993  14.2292  14.2640  14.3631
    14.4483  14.5350  14.5449  14.5737  14.6435  14.7318  14.9373  14.9618
    14.9977  15.0386  15.5930  15.7236  15.7663  15.8645  15.8874  16.0616
    16.5061  16.5225  16.5416  16.6446  16.7082  16.7173  16.8132  17.0581
    17.0612  17.1456  17.3089  17.3110  17.3805  17.4215  17.6867  17.8390
    17.8744  17.9579

          k = 0.2857 0.4949 0.0883 (  9297 PWs)   bands (ev):

   -70.7658 -70.7427 -70.7370 -70.7335 -70.7200 -70.7020 -70.7019 -70.6932
   -40.8602 -40.8523 -40.8441 -40.8360 -37.0522 -37.0045 -36.9752 -36.9520
   -36.9027 -36.8576 -36.8540 -36.7964 -36.7887 -36.7798 -36.7789 -36.7771
   -36.7496 -36.7456 -36.7312 -36.7151 -36.6865 -36.6758 -36.6751 -36.6672
   -36.6597 -36.6448 -36.6407 -36.6221 -17.1970 -17.1869 -17.1813 -17.1780
   -17.1168 -17.0951 -17.0651 -17.0419 -16.9880 -16.9786 -16.9748 -16.9607
    10.6686  11.6609  11.7789  12.0697  12.5008  12.6093  12.6729  12.7865
    12.8504  13.1340  13.7322  13.7415  13.7710  13.8704  13.8892  13.9067
    13.9749  14.0006  14.0485  14.1102  14.1478  14.2445  14.2667  14.2948
    14.4060  14.5151  14.6079  14.6415  14.6662  14.7968  14.8989  14.9850
    15.0665  15.0753  15.5859  15.6968  15.7086  15.8875  15.9183  16.0192
    16.3685  16.4362  16.6209  16.6402  16.7027  16.7315  16.8799  17.0575
    17.0838  17.1630  17.2469  17.2608  17.3947  17.4476  17.6882  17.7804
    17.9606  18.0444

          k = 0.2857 0.4949 0.1766 (  9295 PWs)   bands (ev):

   -70.7632 -70.7476 -70.7369 -70.7359 -70.7126 -70.7019 -70.7019 -70.6959
   -40.8594 -40.8544 -40.8420 -40.8368 -37.0478 -37.0181 -36.9665 -36.9539
   -36.8893 -36.8508 -36.8484 -36.8167 -36.8037 -36.7958 -36.7798 -36.7795
   -36.7454 -36.7445 -36.7117 -36.7056 -36.6781 -36.6745 -36.6726 -36.6670
   -36.6573 -36.6503 -36.6460 -36.6293 -17.1947 -17.1843 -17.1834 -17.1772
   -17.1189 -17.1057 -17.0549 -17.0406 -16.9881 -16.9812 -16.9725 -16.9628
    10.7907  11.5342  11.7446  12.0319  12.3630  12.5169  12.8237  12.8267
    13.0534  13.2004  13.6161  13.6560  13.7521  13.8281  13.9186  13.9401
    13.9735  13.9790  13.9958  14.0990  14.1623  14.2039  14.2551  14.2648
    14.3547  14.4693  14.6568  14.6689  14.7190  14.8546  14.9795  15.0044
    15.2043  15.2271  15.5523  15.6044  15.6234  15.8758  15.9486  15.9591
    16.2206  16.2898  16.6093  16.6550  16.7328  16.7683  16.9439  17.0569
    17.1042  17.1608  17.2341  17.2576  17.3211  17.4701  17.6883  17.7361
    18.0009  18.0854

          k = 0.2857 0.4949 0.2649 (  9263 PWs)   bands (ev):

   -70.7590 -70.7536 -70.7368 -70.7366 -70.7059 -70.7019 -70.7019 -70.7002
   -40.8581 -40.8564 -40.8399 -40.8381 -37.0404 -37.0303 -36.9605 -36.9567
   -36.8687 -36.8448 -36.8419 -36.8412 -36.8127 -36.8098 -36.7798 -36.7797
   -36.7438 -36.7437 -36.7001 -36.6988 -36.6737 -36.6727 -36.6649 -36.6637
   -36.6579 -36.6539 -36.6509 -36.6399 -17.1913 -17.1875 -17.1802 -17.1776
   -17.1188 -17.1142 -17.0465 -17.0416 -16.9870 -16.9844 -16.9693 -16.9658
    10.9863  11.2423  11.8696  11.9965  12.3145  12.4025  12.8545  12.8646
    13.2869  13.2995  13.4817  13.5285  13.7605  13.7871  13.8860  13.8970
    13.9760  13.9809  14.0419  14.0714  14.1805  14.2311  14.2515  14.2536
    14.3388  14.4026  14.6593  14.6912  14.7348  14.8015  15.0984  15.1317
    15.3547  15.3684  15.4962  15.5067  15.5642  15.7150  15.9596  15.9694
    16.1530  16.1824  16.6225  16.6410  16.7632  16.7785  16.9803  17.0291
    17.0922  17.1582  17.2741  17.2752  17.3240  17.4181  17.6934  17.7096
    18.0053  18.0403

     the Fermi energy is    16.1713 ev

!    total energy              =   -3111.29402275 Ry
     estimated scf accuracy    <          1.2E-09 Ry
     smearing contrib. (-TS)   =       0.00000710 Ry
     internal energy E=F+TS    =   -3111.29402986 Ry

     The total energy is F=E-TS. E is the sum of the following terms:
     one-electron contribution =   -1208.28147620 Ry
     hartree contribution      =     698.24284196 Ry
     xc contribution           =    -349.41160795 Ry
     ewald contribution        =   -1642.60130586 Ry
     one-center paw contrib.   =    -609.24248181 Ry

     convergence has been achieved in  25 iterations

     negative rho (up, down):  3.721E-03 0.000E+00

     Forces acting on atoms (cartesian axes, Ry/au):

     atom    1 type  1   force =    -0.01434416    0.00828160    0.00000000
     atom    2 type  1   force =     0.01434416   -0.00828160   -0.00000000
     atom    3 type  1   force =     0.00000000    0.01656321    0.00000000
     atom    4 type  1   force =     0.01434416    0.00828160    0.00000000
     atom    5 type  1   force =     0.00000000   -0.01656321   -0.00000000
     atom    6 type  1   force =    -0.01434416   -0.00828160   -0.00000000
     atom    7 type  1   force =     0.00000000    0.00000000    0.00000000
     atom    8 type  1   force =    -0.00000000   -0.00000000   -0.00000000
     atom    9 type  2   force =     0.00000000   -0.00000000   -0.01092272
     atom   10 type  2   force =     0.00000000    0.00000000   -0.01092272
     atom   11 type  2   force =    -0.00000000    0.00000000    0.01092272
     atom   12 type  2   force =    -0.00000000    0.00000000    0.01092272

     Total force =     0.046079     Total SCF correction =     0.000067


     Computing stress (Cartesian axis) and pressure


     negative rho (up, down):  3.721E-03 0.000E+00
          total   stress  (Ry/bohr**3)                   (kbar)     P=     -164.74
  -0.00120540   0.00000000   0.00000000         -177.32        0.00        0.00
   0.00000000  -0.00120540   0.00000000            0.00     -177.32        0.00
   0.00000000   0.00000000  -0.00094891            0.00        0.00     -139.59


     Writing all to output data dir ./FeAl.save/ :
     XML data file, charge density, pseudopotentials, collected wavefunctions

     init_run     :      5.10s CPU      5.23s WALL (       1 calls)
     electrons    :    245.05s CPU    248.96s WALL (       1 calls)
     forces       :      1.39s CPU      1.43s WALL (       1 calls)
     stress       :      6.07s CPU      6.17s WALL (       1 calls)

     Called by init_run:
     wfcinit      :      3.64s CPU      3.69s WALL (       1 calls)
     potinit      :      0.76s CPU      0.80s WALL (       1 calls)
     hinit0       :      0.38s CPU      0.38s WALL (       1 calls)

     Called by electrons:
     c_bands      :    201.64s CPU    203.19s WALL (      25 calls)
     sum_band     :     27.75s CPU     28.65s WALL (      25 calls)
     v_of_rho     :      1.39s CPU      1.46s WALL (      26 calls)
     newd         :      5.99s CPU      6.74s WALL (      26 calls)
     PAW_pot      :      8.60s CPU      9.13s WALL (      26 calls)
     mix_rho      :      0.15s CPU      0.16s WALL (      25 calls)

     Called by c_bands:
     init_us_2    :      1.34s CPU      1.34s WALL (    1696 calls)
     cegterg      :    194.43s CPU    195.91s WALL (     800 calls)

     Called by *egterg:
     cdiaghg      :     36.67s CPU     36.78s WALL (    3097 calls)
     h_psi        :    107.31s CPU    108.53s WALL (    3129 calls)
     s_psi        :      9.35s CPU      9.39s WALL (    3129 calls)
     g_psi        :      0.47s CPU      0.48s WALL (    2297 calls)

     Called by h_psi:
     h_psi:calbec :     13.48s CPU     13.55s WALL (    3129 calls)
     vloc_psi     :     83.65s CPU     84.75s WALL (    3129 calls)
     add_vuspsi   :      9.79s CPU      9.83s WALL (    3129 calls)

     General routines
     calbec       :     22.01s CPU     22.11s WALL (    4473 calls)
     fft          :      1.20s CPU      1.33s WALL (     361 calls)
     ffts         :      0.38s CPU      0.39s WALL (      51 calls)
     fftw         :     81.20s CPU     82.23s WALL (  506946 calls)
     interpolate  :      0.44s CPU      0.45s WALL (      26 calls)

     Parallel routines

     PWSCF        :    258.08s CPU    268.29s WALL


   This run was terminated on:   2:35:26  27Oct2025            

=------------------------------------------------------------------------------=
   JOB DONE.
=------------------------------------------------------------------------------=
Note: The following floating-point exceptions are signalling: IEEE_UNDERFLOW_FLAG IEEE_DENORMAL
Note: The following floating-point exceptions are signalling: IEEE_UNDERFLOW_FLAG IEEE_DENORMAL
Note: The following floating-point exceptions are signalling: IEEE_UNDERFLOW_FLAG IEEE_DENORMAL
Note: The following floating-point exceptions are signalling: IEEE_UNDERFLOW_FLAG IEEE_DENORMAL
Note: The following floating-point exceptions are signalling: IEEE_UNDERFLOW_FLAG IEEE_DENORMAL
Note: The following floating-point exceptions are signalling: IEEE_UNDERFLOW_FLAG IEEE_DENORMAL
Note: The following floating-point exceptions are signalling: IEEE_UNDERFLOW_FLAG IEEE_DENORMAL
Note: The following floating-point exceptions are signalling: IEEE_UNDERFLOW_FLAG IEEE_DENORMAL
