
     Program PWSCF v.7.4 starts on 27Oct2025 at  2:20: 4 

     This program is part of the open-source Quantum ESPRESSO suite
     for quantum simulation of materials; please cite
         "P. Giannozzi et al., J. Phys.:Condens. Matter 21 395502 (2009);
         "P. Giannozzi et al., J. Phys.:Condens. Matter 29 465901 (2017);
         "P. Giannozzi et al., J. Chem. Phys. 152 154105 (2020);
          URL http://www.quantum-espresso.org", 
     in publications or presentations arising from this work. More details at
     http://www.quantum-espresso.org/quote

     Parallel version (MPI & OpenMP), running on       8 processor cores
     Number of MPI processes:                 8
     Threads/MPI process:                     1

     MPI processes distributed on     1 nodes
     218665 MiB available memory on the printing compute node when the environment starts

     Reading input from TiFe2_kmesh_convergence/TiFe2_k333.in

     Current dimensions of program PWSCF are:
     Max number of different atomic species (ntypx) = 10
     Max number of k-points (npk) =  40000
     Max angular momentum in pseudopotentials (lmaxx) =  4
     file Fe.pbe-spn-kjpaw_psl.0.2.1.UPF: wavefunction(s)  3D renormalized

     IMPORTANT: XC functional enforced from input :
     Exchange-correlation= PBE
                           (   1   4   3   4   0   0   0)
     Any further DFT definition will be discarded
     Please, verify this is what you really want

     Message from routine setup:
     using ibrav=0 with symmetry is DISCOURAGED, use correct ibrav instead

     R & G space division:  proc/nbgrp/npool/nimage =       8
     Subspace diagonalization in iterative solution of the eigenvalue problem:
     a serial algorithm will be used


     Parallelization info
     --------------------
     sticks:   dense  smooth     PW     G-vecs:    dense   smooth      PW
     Min         563     185     52                49655     9309    1392
     Max         564     186     53                49666     9318    1395
     Sum        4507    1483    421               397277    74505   11151

     Using Slab Decomposition



     bravais-lattice index     =            0
     lattice parameter (alat)  =       9.1568  a.u.
     unit-cell volume          =    1075.5644 (a.u.)^3
     number of atoms/cell      =           12
     number of atomic types    =            2
     number of electrons       =       176.00
     number of Kohn-Sham states=          106
     kinetic-energy cutoff     =      64.0000  Ry
     charge density cutoff     =     782.0000  Ry
     scf convergence threshold =      1.0E-08
     mixing beta               =       0.7000
     number of iterations used =            8  plain     mixing
     Exchange-correlation= PBE
                           (   1   4   3   4   0   0   0)

     celldm(1)=   9.156781  celldm(2)=   0.000000  celldm(3)=   0.000000
     celldm(4)=   0.000000  celldm(5)=   0.000000  celldm(6)=   0.000000

     crystal axes: (cart. coord. in units of alat)
               a(1) = (   1.000000   0.000000   0.000000 )  
               a(2) = (  -0.500000   0.866025   0.000000 )  
               a(3) = (   0.000000   0.000000   1.617623 )  

     reciprocal axes: (cart. coord. in units 2 pi/alat)
               b(1) = (  1.000000  0.577350 -0.000000 )  
               b(2) = (  0.000000  1.154701  0.000000 )  
               b(3) = (  0.000000 -0.000000  0.618191 )  


     PseudoPot. # 1 for Fe read from file:
     ./Fe.pbe-spn-kjpaw_psl.0.2.1.UPF
     MD5 check sum: e86618425769142926afa95317d90200
     Pseudo is Projector augmented-wave + core cor, Zval = 16.0
     Generated using "atomic" code by A. Dal Corso  v.5.0.99 svn rev. 10869
     Shape of augmentation charge: PSQ
     Using radial grid of 1191 points,  6 beta functions with: 
                l(1) =   0
                l(2) =   0
                l(3) =   1
                l(4) =   1
                l(5) =   2
                l(6) =   2
     Q(r) pseudized with 0 coefficients 


     PseudoPot. # 2 for Ti read from file:
     ./Ti_pbe_v1.4.uspp.F.UPF
     MD5 check sum: 88a00a6731bd790ddea75d31a80cb452
     Pseudo is Ultrasoft + core correction, Zval = 12.0
     Generated by new atomic code, or converted to UPF format
     Using radial grid of  851 points,  6 beta functions with: 
                l(1) =   0
                l(2) =   0
                l(3) =   1
                l(4) =   1
                l(5) =   2
                l(6) =   2
     Q(r) pseudized with  6 coefficients,  rinner =    1.000   1.000   1.000
                                                       1.000   1.000

     atomic species   valence    mass     pseudopotential
     Fe               16.00    55.84500     Fe( 1.00)
     Ti               12.00    47.86700     Ti( 1.00)

     24 Sym. Ops., with inversion, found (12 have fractional translation)



   Cartesian axes

     site n.     atom                  positions (alat units)
         1        Fe     tau(   1) = (   0.7465670   0.1463196   0.4044057  )
         2        Fe     tau(   2) = (  -0.2465670   0.7197058   1.2132171  )
         3        Fe     tau(   3) = (  -0.0000000   0.2926392   1.2132171  )
         4        Fe     tau(   4) = (   0.2534330   0.1463196   0.4044057  )
         5        Fe     tau(   5) = (   0.5000000   0.5733862   0.4044057  )
         6        Fe     tau(   6) = (   0.2465670   0.7197058   1.2132171  )
         7        Fe     tau(   7) = (   0.0000000   0.0000000   0.0000000  )
         8        Fe     tau(   8) = (   0.0000000   0.0000000   0.8088114  )
         9        Ti     tau(   9) = (   0.5000000   0.2886751   1.5200090  )
        10        Ti     tau(  10) = (  -0.0000000   0.5773503   0.7111976  )
        11        Ti     tau(  11) = (  -0.0000000   0.5773503   0.0976138  )
        12        Ti     tau(  12) = (   0.5000000   0.2886751   0.9064252  )

     number of k points=     6  Marzari-Vanderbilt smearing, width (Ry)=  0.0050
                       cart. coord. in units 2pi/alat
        k(    1) = (   0.0000000   0.0000000   0.0000000), wk =   0.0740741
        k(    2) = (   0.0000000   0.0000000   0.2060637), wk =   0.1481481
        k(    3) = (   0.0000000   0.3849002   0.0000000), wk =   0.4444444
        k(    4) = (   0.0000000   0.3849002   0.2060637), wk =   0.8888889
        k(    5) = (   0.3333333   0.5773503   0.0000000), wk =   0.1481481
        k(    6) = (   0.3333333   0.5773503   0.2060637), wk =   0.2962963

     Dense  grid:   397277 G-vectors     FFT dimensions: (  81,  81, 144)

     Smooth grid:    74505 G-vectors     FFT dimensions: (  48,  48,  80)

     Estimated max dynamical RAM per process >     209.48 MB

     Estimated total dynamical RAM >       1.64 GB

     Check: negative core charge=   -0.000017

     Initial potential from superposition of free atoms

     starting charge     171.9963, renormalised to     176.0000

     negative rho (up, down):  6.092E-03 0.000E+00
     Starting wfcs are  144 randomized atomic wfcs
     Checking if some PAW data can be deallocated... 

     total cpu time spent up to now is        2.5 secs

     per-process dynamical memory:   156.0 Mb

     Self-consistent Calculation

     iteration #  1     ecut=    64.00 Ry     beta= 0.70
     Davidson diagonalization with overlap
     ethr =  1.00E-02,  avg # of iterations =  2.0

     negative rho (up, down):  2.191E-04 0.000E+00

     total cpu time spent up to now is        5.1 secs

     total energy              =   -3016.42932211 Ry
     estimated scf accuracy    <     117.18629594 Ry

     iteration #  2     ecut=    64.00 Ry     beta= 0.70
     Davidson diagonalization with overlap
     ethr =  1.00E-02,  avg # of iterations =  6.3

     total cpu time spent up to now is        9.5 secs

     total energy              =   -3075.96088613 Ry
     estimated scf accuracy    <     701.88326440 Ry

     iteration #  3     ecut=    64.00 Ry     beta= 0.70
     Davidson diagonalization with overlap
     ethr =  1.00E-02,  avg # of iterations =  5.2

     total cpu time spent up to now is       13.1 secs

     total energy              =   -3120.85081077 Ry
     estimated scf accuracy    <      91.72310297 Ry

     iteration #  4     ecut=    64.00 Ry     beta= 0.70
     Davidson diagonalization with overlap
     ethr =  1.00E-02,  avg # of iterations =  1.2

     negative rho (up, down):  4.492E-05 0.000E+00

     total cpu time spent up to now is       15.4 secs

     total energy              =   -3115.74043341 Ry
     estimated scf accuracy    <      54.60839085 Ry

     iteration #  5     ecut=    64.00 Ry     beta= 0.70
     Davidson diagonalization with overlap
     ethr =  1.00E-02,  avg # of iterations =  2.2

     negative rho (up, down):  1.033E-04 0.000E+00

     total cpu time spent up to now is       17.8 secs

     total energy              =   -3115.35050497 Ry
     estimated scf accuracy    <      34.89986044 Ry

     iteration #  6     ecut=    64.00 Ry     beta= 0.70
     Davidson diagonalization with overlap
     ethr =  1.00E-02,  avg # of iterations =  1.0

     negative rho (up, down):  3.014E-04 0.000E+00

     total cpu time spent up to now is       20.0 secs

     total energy              =   -3114.34855373 Ry
     estimated scf accuracy    <      25.35764398 Ry

     iteration #  7     ecut=    64.00 Ry     beta= 0.70
     Davidson diagonalization with overlap
     ethr =  1.00E-02,  avg # of iterations =  1.0

     negative rho (up, down):  8.480E-04 0.000E+00

     total cpu time spent up to now is       22.3 secs

     total energy              =   -3111.59074856 Ry
     estimated scf accuracy    <      21.16920317 Ry

     iteration #  8     ecut=    64.00 Ry     beta= 0.70
     Davidson diagonalization with overlap
     ethr =  1.00E-02,  avg # of iterations =  1.0

     negative rho (up, down):  1.412E-03 0.000E+00

     total cpu time spent up to now is       24.5 secs

     total energy              =   -3111.47094946 Ry
     estimated scf accuracy    <       8.34723042 Ry

     iteration #  9     ecut=    64.00 Ry     beta= 0.70
     Davidson diagonalization with overlap
     ethr =  4.74E-03,  avg # of iterations =  1.3

     negative rho (up, down):  2.080E-03 0.000E+00

     total cpu time spent up to now is       26.8 secs

     total energy              =   -3111.22192407 Ry
     estimated scf accuracy    <       5.03798607 Ry

     iteration # 10     ecut=    64.00 Ry     beta= 0.70
     Davidson diagonalization with overlap
     ethr =  2.86E-03,  avg # of iterations =  2.0

     negative rho (up, down):  5.266E-03 0.000E+00

     total cpu time spent up to now is       29.2 secs

     total energy              =   -3110.84459265 Ry
     estimated scf accuracy    <       2.09851124 Ry

     iteration # 11     ecut=    64.00 Ry     beta= 0.70
     Davidson diagonalization with overlap
     ethr =  1.19E-03,  avg # of iterations =  5.3

     negative rho (up, down):  4.263E-03 0.000E+00

     total cpu time spent up to now is       32.4 secs

     total energy              =   -3111.32122363 Ry
     estimated scf accuracy    <       5.23665228 Ry

     iteration # 12     ecut=    64.00 Ry     beta= 0.70
     Davidson diagonalization with overlap
     ethr =  1.19E-03,  avg # of iterations =  1.2

     negative rho (up, down):  2.000E-03 0.000E+00

     total cpu time spent up to now is       34.7 secs

     total energy              =   -3110.95459008 Ry
     estimated scf accuracy    <       2.05344373 Ry

     iteration # 13     ecut=    64.00 Ry     beta= 0.70
     Davidson diagonalization with overlap
     ethr =  1.17E-03,  avg # of iterations =  3.2

     negative rho (up, down):  2.969E-03 0.000E+00

     total cpu time spent up to now is       37.3 secs

     total energy              =   -3111.27285732 Ry
     estimated scf accuracy    <       1.74170000 Ry

     iteration # 14     ecut=    64.00 Ry     beta= 0.70
     Davidson diagonalization with overlap
     ethr =  9.90E-04,  avg # of iterations =  1.2

     negative rho (up, down):  3.331E-03 0.000E+00

     total cpu time spent up to now is       39.5 secs

     total energy              =   -3111.29453793 Ry
     estimated scf accuracy    <       0.31065853 Ry

     iteration # 15     ecut=    64.00 Ry     beta= 0.70
     Davidson diagonalization with overlap
     ethr =  1.77E-04,  avg # of iterations =  1.5

     negative rho (up, down):  3.454E-03 0.000E+00

     total cpu time spent up to now is       41.9 secs

     total energy              =   -3111.29766296 Ry
     estimated scf accuracy    <       0.07984431 Ry

     iteration # 16     ecut=    64.00 Ry     beta= 0.70
     Davidson diagonalization with overlap
     ethr =  4.54E-05,  avg # of iterations =  3.5

     negative rho (up, down):  3.658E-03 0.000E+00

     total cpu time spent up to now is       44.3 secs

     total energy              =   -3111.29498276 Ry
     estimated scf accuracy    <       0.04204561 Ry

     iteration # 17     ecut=    64.00 Ry     beta= 0.70
     Davidson diagonalization with overlap
     ethr =  2.39E-05,  avg # of iterations =  2.5

     negative rho (up, down):  3.779E-03 0.000E+00

     total cpu time spent up to now is       46.8 secs

     total energy              =   -3111.29602055 Ry
     estimated scf accuracy    <       0.00360263 Ry

     iteration # 18     ecut=    64.00 Ry     beta= 0.70
     Davidson diagonalization with overlap
     c_bands:  1 eigenvalues not converged
     ethr =  2.05E-06,  avg # of iterations = 10.0

     negative rho (up, down):  3.751E-03 0.000E+00

     total cpu time spent up to now is       50.4 secs

     total energy              =   -3111.29720877 Ry
     estimated scf accuracy    <       0.00464718 Ry

     iteration # 19     ecut=    64.00 Ry     beta= 0.70
     Davidson diagonalization with overlap
     c_bands:  1 eigenvalues not converged
     ethr =  2.05E-06,  avg # of iterations =  4.2

     negative rho (up, down):  3.723E-03 0.000E+00

     total cpu time spent up to now is       52.9 secs

     total energy              =   -3111.29712335 Ry
     estimated scf accuracy    <       0.00176456 Ry

     iteration # 20     ecut=    64.00 Ry     beta= 0.70
     Davidson diagonalization with overlap
     ethr =  1.00E-06,  avg # of iterations =  1.5

     negative rho (up, down):  3.720E-03 0.000E+00

     total cpu time spent up to now is       55.2 secs

     total energy              =   -3111.29717101 Ry
     estimated scf accuracy    <       0.00018578 Ry

     iteration # 21     ecut=    64.00 Ry     beta= 0.70
     Davidson diagonalization with overlap
     ethr =  1.06E-07,  avg # of iterations =  2.8

     negative rho (up, down):  3.709E-03 0.000E+00

     total cpu time spent up to now is       57.8 secs

     total energy              =   -3111.29717310 Ry
     estimated scf accuracy    <       0.00007715 Ry

     iteration # 22     ecut=    64.00 Ry     beta= 0.70
     Davidson diagonalization with overlap
     ethr =  4.38E-08,  avg # of iterations =  4.7

     negative rho (up, down):  3.708E-03 0.000E+00

     total cpu time spent up to now is       60.5 secs

     total energy              =   -3111.29718489 Ry
     estimated scf accuracy    <       0.00000126 Ry

     iteration # 23     ecut=    64.00 Ry     beta= 0.70
     Davidson diagonalization with overlap
     ethr =  7.18E-10,  avg # of iterations =  7.8

     negative rho (up, down):  3.710E-03 0.000E+00

     total cpu time spent up to now is       65.5 secs

     total energy              =   -3111.29718828 Ry
     estimated scf accuracy    <       0.00000491 Ry

     iteration # 24     ecut=    64.00 Ry     beta= 0.70
     Davidson diagonalization with overlap
     ethr =  7.18E-10,  avg # of iterations =  1.3

     negative rho (up, down):  3.711E-03 0.000E+00

     total cpu time spent up to now is       67.8 secs

     total energy              =   -3111.29718799 Ry
     estimated scf accuracy    <       0.00000225 Ry

     iteration # 25     ecut=    64.00 Ry     beta= 0.70
     Davidson diagonalization with overlap
     ethr =  7.18E-10,  avg # of iterations =  2.8

     negative rho (up, down):  3.711E-03 0.000E+00

     total cpu time spent up to now is       70.4 secs

     total energy              =   -3111.29718820 Ry
     estimated scf accuracy    <       0.00000008 Ry

     iteration # 26     ecut=    64.00 Ry     beta= 0.70
     Davidson diagonalization with overlap
     ethr =  4.38E-11,  avg # of iterations =  5.0

     negative rho (up, down):  3.711E-03 0.000E+00

     total cpu time spent up to now is       73.2 secs

     total energy              =   -3111.29718820 Ry
     estimated scf accuracy    <       0.00000016 Ry

     iteration # 27     ecut=    64.00 Ry     beta= 0.70
     Davidson diagonalization with overlap
     ethr =  4.38E-11,  avg # of iterations =  2.3

     negative rho (up, down):  3.711E-03 0.000E+00

     total cpu time spent up to now is       75.7 secs

     End of self-consistent calculation

          k = 0.0000 0.0000 0.0000 (  9343 PWs)   bands (ev):

   -70.7849 -70.7560 -70.7393 -70.7102 -70.6929 -70.6929 -70.6929 -70.6929
   -40.8760 -40.8618 -40.8265 -40.8111 -37.1911 -37.1254 -36.9855 -36.8905
   -36.8905 -36.8661 -36.8661 -36.8545 -36.8545 -36.7700 -36.7656 -36.7546
   -36.7546 -36.7124 -36.7124 -36.6390 -36.6390 -36.6319 -36.6319 -36.6308
   -36.6308 -36.6160 -36.6066 -36.6064 -17.1690 -17.1690 -17.1550 -17.1550
   -17.1510 -17.1493 -17.0102 -17.0071 -16.9956 -16.9956 -16.9810 -16.9810
     8.6219  10.6553  11.4300  12.0195  12.5174  12.6056  12.7693  12.7693
    12.9907  12.9907  13.2097  13.3018  13.3921  13.3921  13.8273  13.8273
    13.9793  13.9793  14.2203  14.3033  14.3033  14.3172  14.3172  14.7735
    14.7735  14.9196  15.3984  15.3984  15.5160  15.5160  15.8381  15.9064
    15.9064  15.9107  15.9107  16.0669  16.0669  16.0786  16.0914  16.1529
    16.1700  16.1700  16.2427  16.2885  16.2885  16.7326  16.7326  16.7641
    16.9942  16.9942  17.2920  17.2920  17.4935  17.4935  17.5104  17.5108
    17.7913  17.7913

          k = 0.0000 0.0000 0.2061 (  9296 PWs)   bands (ev):

   -70.7802 -70.7676 -70.7276 -70.7149 -70.6929 -70.6929 -70.6929 -70.6929
   -40.8732 -40.8663 -40.8217 -40.8142 -37.1791 -37.1485 -36.9430 -36.8876
   -36.8876 -36.8790 -36.8790 -36.8587 -36.8290 -36.8290 -36.7878 -36.7878
   -36.6881 -36.6819 -36.6819 -36.6499 -36.6499 -36.6349 -36.6321 -36.6321
   -36.6316 -36.6316 -36.6065 -36.6064 -17.1657 -17.1657 -17.1587 -17.1587
   -17.1499 -17.1490 -17.0101 -17.0086 -16.9918 -16.9918 -16.9845 -16.9845
     8.9258   9.7684  11.9866  12.0223  12.4657  12.8196  12.8196  12.8680
    12.9279  12.9279  13.0644  13.4189  13.4918  13.4918  13.7182  13.7182
    13.9642  13.9642  14.0896  14.0896  14.5133  14.6595  14.6595  14.9431
    14.9431  15.0425  15.1562  15.1562  15.2788  15.2788  15.4805  15.5043
    15.9595  15.9595  16.0290  16.0290  16.0898  16.0898  16.1066  16.1307
    16.1307  16.1374  16.3279  16.3279  16.6227  16.8044  16.8044  17.0174
    17.0174  17.2461  17.2461  17.4166  17.5105  17.5490  17.5490  17.5694
    17.7242  17.7242

          k = 0.0000 0.3849 0.0000 (  9302 PWs)   bands (ev):

   -70.7745 -70.7431 -70.7392 -70.7218 -70.7058 -70.6929 -70.6929 -70.6918
   -40.8661 -40.8512 -40.8373 -40.8217 -37.1158 -37.0527 -36.9777 -36.9052
   -36.8759 -36.8617 -36.8544 -36.8472 -36.8111 -36.7733 -36.7558 -36.7494
   -36.7488 -36.7304 -36.7126 -36.7123 -36.6809 -36.6791 -36.6682 -36.6423
   -36.6306 -36.6214 -36.6197 -36.6023 -17.1907 -17.1817 -17.1663 -17.1624
   -17.1403 -17.1021 -17.0534 -17.0124 -16.9939 -16.9837 -16.9689 -16.9660
     9.6379  11.3635  12.0248  12.0561  12.4075  12.6025  12.6526  12.9385
    13.0096  13.0731  13.5568  13.5803  13.5968  13.6353  13.7381  13.9329
    14.0018  14.1465  14.2484  14.2786  14.3334  14.3753  14.4173  14.4505
    14.5058  14.5413  14.5539  14.7730  14.7886  14.8903  14.9830  15.0833
    15.1098  15.4076  15.7112  15.9954  16.0914  16.1360  16.1593  16.2017
    16.2135  16.3304  16.4071  16.6350  16.6466  16.7493  16.7572  16.8519
    16.8551  17.0288  17.0357  17.3466  17.3976  17.6196  17.6833  17.6998
    17.7384  18.2468

          k = 0.0000 0.3849 0.2061 (  9298 PWs)   bands (ev):

   -70.7698 -70.7574 -70.7283 -70.7229 -70.7025 -70.6953 -70.6929 -70.6929
   -40.8636 -40.8569 -40.8315 -40.8244 -37.1056 -37.0775 -36.9453 -36.9131
   -36.8732 -36.8518 -36.8483 -36.8394 -36.8262 -36.8022 -36.7956 -36.7755
   -36.7223 -36.7184 -36.6908 -36.6898 -36.6804 -36.6622 -36.6590 -36.6524
   -36.6418 -36.6203 -36.6198 -36.6176 -17.1836 -17.1781 -17.1704 -17.1691
   -17.1338 -17.1154 -17.0404 -17.0215 -16.9853 -16.9798 -16.9724 -16.9719
     9.9088  10.6460  12.0371  12.2515  12.5980  12.6610  12.7494  12.8979
    13.0516  13.1990  13.3260  13.3752  13.7463  13.7584  13.8075  13.9018
    13.9414  14.0463  14.1861  14.1983  14.2455  14.3275  14.4513  14.5291
    14.5880  14.6262  14.7257  14.8504  14.8595  14.9774  15.0064  15.0574
    15.2615  15.5095  15.6948  15.7722  15.8616  15.9349  15.9591  16.0144
    16.2614  16.3523  16.4419  16.6302  16.6837  16.7075  16.7145  16.8528
    16.9497  17.1359  17.1761  17.3146  17.3866  17.5241  17.6482  17.8191
    17.9923  18.0918

          k = 0.3333 0.5774 0.0000 (  9324 PWs)   bands (ev):

   -70.7672 -70.7392 -70.7295 -70.7295 -70.7195 -70.6929 -70.6929 -70.6914
   -40.8520 -40.8519 -40.8365 -40.8365 -37.0375 -36.9735 -36.9731 -36.9731
   -36.9244 -36.8603 -36.8603 -36.7924 -36.7924 -36.7754 -36.7754 -36.7429
   -36.7367 -36.7287 -36.7287 -36.7020 -36.7020 -36.6820 -36.6685 -36.6685
   -36.6620 -36.6381 -36.6381 -36.5970 -17.1971 -17.1795 -17.1787 -17.1787
   -17.0988 -17.0988 -17.0540 -17.0540 -16.9776 -16.9776 -16.9722 -16.9564
    10.8905  11.6296  11.6296  12.3796  12.4161  12.6351  12.6351  12.7412
    12.7412  13.0940  13.7861  13.7861  13.8689  13.8689  13.9705  13.9705
    13.9776  13.9789  14.0161  14.0161  14.1156  14.2234  14.2639  14.2639
    14.5160  14.5160  14.5417  14.5979  14.5979  14.8896  14.8896  14.9593
    14.9827  15.0772  15.6646  15.7103  15.7103  15.7420  15.7420  16.0443
    16.5590  16.5590  16.5743  16.5743  16.8037  16.8037  16.9456  16.9456
    16.9746  17.1497  17.3224  17.3880  17.3880  17.4126  17.7738  17.7738
    17.8242  17.9684

          k = 0.3333 0.5774 0.2061 (  9288 PWs)   bands (ev):

   -70.7625 -70.7501 -70.7295 -70.7295 -70.7085 -70.6961 -70.6929 -70.6929
   -40.8521 -40.8521 -40.8363 -40.8363 -37.0281 -37.0014 -36.9735 -36.9735
   -36.8809 -36.8500 -36.8500 -36.8108 -36.8092 -36.8092 -36.7754 -36.7754
   -36.7326 -36.7326 -36.6928 -36.6832 -36.6802 -36.6802 -36.6682 -36.6682
   -36.6487 -36.6487 -36.6463 -36.6119 -17.1929 -17.1841 -17.1749 -17.1749
   -17.1093 -17.1093 -17.0446 -17.0446 -16.9802 -16.9802 -16.9680 -16.9602
    11.0900  11.6393  11.7764  11.7764  12.3386  12.3386  12.8700  12.8700
    13.1607  13.2258  13.6329  13.7193  13.7193  13.7819  13.9050  13.9050
    13.9396  13.9396  14.0835  14.0835  14.1554  14.1619  14.1631  14.1631
    14.4233  14.4233  14.6560  14.7520  14.7520  14.8243  15.0547  15.0547
    15.2312  15.3493  15.5042  15.5042  15.5554  15.8281  15.9076  15.9076
    16.2331  16.2331  16.6442  16.6442  16.8084  16.8084  16.9606  17.0805
    17.0805  17.0828  17.2604  17.3427  17.3427  17.4109  17.7773  17.7773
    17.9218  17.9218

     the Fermi energy is    16.1821 ev

!    total energy              =   -3111.29718821 Ry
     estimated scf accuracy    <          3.7E-09 Ry
     smearing contrib. (-TS)   =      -0.00008206 Ry
     internal energy E=F+TS    =   -3111.29710615 Ry

     The total energy is F=E-TS. E is the sum of the following terms:
     one-electron contribution =   -1208.32517022 Ry
     hartree contribution      =     698.28785845 Ry
     xc contribution           =    -349.41583860 Ry
     ewald contribution        =   -1642.60130586 Ry
     one-center paw contrib.   =    -609.24264992 Ry

     convergence has been achieved in  27 iterations

     negative rho (up, down):  3.711E-03 0.000E+00

     Forces acting on atoms (cartesian axes, Ry/au):

     atom    1 type  1   force =    -0.01271780    0.00734263    0.00000000
     atom    2 type  1   force =     0.01271780   -0.00734263   -0.00000000
     atom    3 type  1   force =     0.00000000    0.01468525   -0.00000000
     atom    4 type  1   force =     0.01271780    0.00734263   -0.00000000
     atom    5 type  1   force =     0.00000000   -0.01468525   -0.00000000
     atom    6 type  1   force =    -0.01271780   -0.00734263    0.00000000
     atom    7 type  1   force =     0.00000000   -0.00000000   -0.00000000
     atom    8 type  1   force =     0.00000000   -0.00000000   -0.00000000
     atom    9 type  2   force =     0.00000000   -0.00000000   -0.01123926
     atom   10 type  2   force =     0.00000000    0.00000000   -0.01123926
     atom   11 type  2   force =     0.00000000    0.00000000    0.01123926
     atom   12 type  2   force =    -0.00000000   -0.00000000    0.01123926

     Total force =     0.042417     Total SCF correction =     0.000009


     Computing stress (Cartesian axis) and pressure


     negative rho (up, down):  3.711E-03 0.000E+00
          total   stress  (Ry/bohr**3)                   (kbar)     P=     -164.95
  -0.00121760   0.00000000   0.00000000         -179.12        0.00        0.00
   0.00000000  -0.00121760   0.00000000            0.00     -179.12        0.00
   0.00000000   0.00000000  -0.00092879            0.00        0.00     -136.63


     Writing all to output data dir ./FeAl.save/ :
     XML data file, charge density, pseudopotentials, collected wavefunctions

     init_run     :      2.15s CPU      2.24s WALL (       1 calls)
     electrons    :     70.70s CPU     73.38s WALL (       1 calls)
     forces       :      0.67s CPU      0.71s WALL (       1 calls)
     stress       :      3.50s CPU      3.58s WALL (       1 calls)

     Called by init_run:
     wfcinit      :      0.69s CPU      0.71s WALL (       1 calls)
     potinit      :      0.76s CPU      0.79s WALL (       1 calls)
     hinit0       :      0.37s CPU      0.38s WALL (       1 calls)

     Called by electrons:
     c_bands      :     41.64s CPU     41.96s WALL (      27 calls)
     sum_band     :     12.10s CPU     12.86s WALL (      27 calls)
     v_of_rho     :      1.50s CPU      1.57s WALL (      28 calls)
     newd         :      6.55s CPU      7.33s WALL (      28 calls)
     PAW_pot      :      9.22s CPU      9.84s WALL (      28 calls)
     mix_rho      :      0.16s CPU      0.17s WALL (      27 calls)

     Called by c_bands:
     init_us_2    :      0.28s CPU      0.28s WALL (     342 calls)
     cegterg      :     40.17s CPU     40.49s WALL (     162 calls)

     Called by *egterg:
     cdiaghg      :      7.68s CPU      7.71s WALL (     666 calls)
     h_psi        :     21.98s CPU     22.24s WALL (     672 calls)
     s_psi        :      1.91s CPU      1.92s WALL (     672 calls)
     g_psi        :      0.10s CPU      0.10s WALL (     504 calls)

     Called by h_psi:
     h_psi:calbec :      2.78s CPU      2.80s WALL (     672 calls)
     vloc_psi     :     17.12s CPU     17.35s WALL (     672 calls)
     add_vuspsi   :      2.01s CPU      2.02s WALL (     672 calls)

     General routines
     calbec       :      4.47s CPU      4.49s WALL (     936 calls)
     fft          :      1.28s CPU      1.40s WALL (     387 calls)
     ffts         :      0.38s CPU      0.39s WALL (      55 calls)
     fftw         :     16.91s CPU     17.14s WALL (  103254 calls)
     interpolate  :      0.44s CPU      0.46s WALL (      28 calls)

     Parallel routines

     PWSCF        :     77.27s CPU     81.52s WALL


   This run was terminated on:   2:21:26  27Oct2025            

=------------------------------------------------------------------------------=
   JOB DONE.
=------------------------------------------------------------------------------=
Note: The following floating-point exceptions are signalling: IEEE_UNDERFLOW_FLAG IEEE_DENORMAL
Note: The following floating-point exceptions are signalling: IEEE_UNDERFLOW_FLAG IEEE_DENORMAL
Note: The following floating-point exceptions are signalling: IEEE_UNDERFLOW_FLAG IEEE_DENORMAL
Note: The following floating-point exceptions are signalling: IEEE_UNDERFLOW_FLAG IEEE_DENORMAL
Note: The following floating-point exceptions are signalling: IEEE_UNDERFLOW_FLAG IEEE_DENORMAL
Note: The following floating-point exceptions are signalling: IEEE_UNDERFLOW_FLAG IEEE_DENORMAL
Note: The following floating-point exceptions are signalling: IEEE_UNDERFLOW_FLAG IEEE_DENORMAL
Note: The following floating-point exceptions are signalling: IEEE_UNDERFLOW_FLAG IEEE_DENORMAL
