
     Program PWSCF v.7.4 starts on 27Oct2025 at  2:26:24 

     This program is part of the open-source Quantum ESPRESSO suite
     for quantum simulation of materials; please cite
         "P. Giannozzi et al., J. Phys.:Condens. Matter 21 395502 (2009);
         "P. Giannozzi et al., J. Phys.:Condens. Matter 29 465901 (2017);
         "P. Giannozzi et al., J. Chem. Phys. 152 154105 (2020);
          URL http://www.quantum-espresso.org", 
     in publications or presentations arising from this work. More details at
     http://www.quantum-espresso.org/quote

     Parallel version (MPI & OpenMP), running on       8 processor cores
     Number of MPI processes:                 8
     Threads/MPI process:                     1

     MPI processes distributed on     1 nodes
     218552 MiB available memory on the printing compute node when the environment starts

     Reading input from TiFe2_kmesh_convergence/TiFe2_k666.in

     Current dimensions of program PWSCF are:
     Max number of different atomic species (ntypx) = 10
     Max number of k-points (npk) =  40000
     Max angular momentum in pseudopotentials (lmaxx) =  4
     file Fe.pbe-spn-kjpaw_psl.0.2.1.UPF: wavefunction(s)  3D renormalized

     IMPORTANT: XC functional enforced from input :
     Exchange-correlation= PBE
                           (   1   4   3   4   0   0   0)
     Any further DFT definition will be discarded
     Please, verify this is what you really want

     Message from routine setup:
     using ibrav=0 with symmetry is DISCOURAGED, use correct ibrav instead

     R & G space division:  proc/nbgrp/npool/nimage =       8
     Subspace diagonalization in iterative solution of the eigenvalue problem:
     a serial algorithm will be used


     Parallelization info
     --------------------
     sticks:   dense  smooth     PW     G-vecs:    dense   smooth      PW
     Min         563     185     52                49655     9309    1394
     Max         564     186     53                49666     9318    1401
     Sum        4507    1483    421               397277    74505   11189

     Using Slab Decomposition



     bravais-lattice index     =            0
     lattice parameter (alat)  =       9.1568  a.u.
     unit-cell volume          =    1075.5644 (a.u.)^3
     number of atoms/cell      =           12
     number of atomic types    =            2
     number of electrons       =       176.00
     number of Kohn-Sham states=          106
     kinetic-energy cutoff     =      64.0000  Ry
     charge density cutoff     =     782.0000  Ry
     scf convergence threshold =      1.0E-08
     mixing beta               =       0.7000
     number of iterations used =            8  plain     mixing
     Exchange-correlation= PBE
                           (   1   4   3   4   0   0   0)

     celldm(1)=   9.156781  celldm(2)=   0.000000  celldm(3)=   0.000000
     celldm(4)=   0.000000  celldm(5)=   0.000000  celldm(6)=   0.000000

     crystal axes: (cart. coord. in units of alat)
               a(1) = (   1.000000   0.000000   0.000000 )  
               a(2) = (  -0.500000   0.866025   0.000000 )  
               a(3) = (   0.000000   0.000000   1.617623 )  

     reciprocal axes: (cart. coord. in units 2 pi/alat)
               b(1) = (  1.000000  0.577350 -0.000000 )  
               b(2) = (  0.000000  1.154701  0.000000 )  
               b(3) = (  0.000000 -0.000000  0.618191 )  


     PseudoPot. # 1 for Fe read from file:
     ./Fe.pbe-spn-kjpaw_psl.0.2.1.UPF
     MD5 check sum: e86618425769142926afa95317d90200
     Pseudo is Projector augmented-wave + core cor, Zval = 16.0
     Generated using "atomic" code by A. Dal Corso  v.5.0.99 svn rev. 10869
     Shape of augmentation charge: PSQ
     Using radial grid of 1191 points,  6 beta functions with: 
                l(1) =   0
                l(2) =   0
                l(3) =   1
                l(4) =   1
                l(5) =   2
                l(6) =   2
     Q(r) pseudized with 0 coefficients 


     PseudoPot. # 2 for Ti read from file:
     ./Ti_pbe_v1.4.uspp.F.UPF
     MD5 check sum: 88a00a6731bd790ddea75d31a80cb452
     Pseudo is Ultrasoft + core correction, Zval = 12.0
     Generated by new atomic code, or converted to UPF format
     Using radial grid of  851 points,  6 beta functions with: 
                l(1) =   0
                l(2) =   0
                l(3) =   1
                l(4) =   1
                l(5) =   2
                l(6) =   2
     Q(r) pseudized with  6 coefficients,  rinner =    1.000   1.000   1.000
                                                       1.000   1.000

     atomic species   valence    mass     pseudopotential
     Fe               16.00    55.84500     Fe( 1.00)
     Ti               12.00    47.86700     Ti( 1.00)

     24 Sym. Ops., with inversion, found (12 have fractional translation)



   Cartesian axes

     site n.     atom                  positions (alat units)
         1        Fe     tau(   1) = (   0.7465670   0.1463196   0.4044057  )
         2        Fe     tau(   2) = (  -0.2465670   0.7197058   1.2132171  )
         3        Fe     tau(   3) = (  -0.0000000   0.2926392   1.2132171  )
         4        Fe     tau(   4) = (   0.2534330   0.1463196   0.4044057  )
         5        Fe     tau(   5) = (   0.5000000   0.5733862   0.4044057  )
         6        Fe     tau(   6) = (   0.2465670   0.7197058   1.2132171  )
         7        Fe     tau(   7) = (   0.0000000   0.0000000   0.0000000  )
         8        Fe     tau(   8) = (   0.0000000   0.0000000   0.8088114  )
         9        Ti     tau(   9) = (   0.5000000   0.2886751   1.5200090  )
        10        Ti     tau(  10) = (  -0.0000000   0.5773503   0.7111976  )
        11        Ti     tau(  11) = (  -0.0000000   0.5773503   0.0976138  )
        12        Ti     tau(  12) = (   0.5000000   0.2886751   0.9064252  )

     number of k points=    28  Marzari-Vanderbilt smearing, width (Ry)=  0.0050
                       cart. coord. in units 2pi/alat
        k(    1) = (   0.0000000   0.0000000   0.0000000), wk =   0.0092593
        k(    2) = (   0.0000000   0.0000000   0.1030318), wk =   0.0185185
        k(    3) = (   0.0000000   0.0000000   0.2060637), wk =   0.0185185
        k(    4) = (   0.0000000   0.0000000  -0.3090955), wk =   0.0092593
        k(    5) = (   0.0000000   0.1924501   0.0000000), wk =   0.0555556
        k(    6) = (   0.0000000   0.1924501   0.1030318), wk =   0.1111111
        k(    7) = (   0.0000000   0.1924501   0.2060637), wk =   0.1111111
        k(    8) = (   0.0000000   0.1924501  -0.3090955), wk =   0.0555556
        k(    9) = (   0.0000000   0.3849002   0.0000000), wk =   0.0555556
        k(   10) = (   0.0000000   0.3849002   0.1030318), wk =   0.1111111
        k(   11) = (   0.0000000   0.3849002   0.2060637), wk =   0.1111111
        k(   12) = (   0.0000000   0.3849002  -0.3090955), wk =   0.0555556
        k(   13) = (   0.0000000  -0.5773503   0.0000000), wk =   0.0277778
        k(   14) = (   0.0000000  -0.5773503   0.1030318), wk =   0.0555556
        k(   15) = (   0.0000000  -0.5773503   0.2060637), wk =   0.0555556
        k(   16) = (   0.0000000  -0.5773503  -0.3090955), wk =   0.0277778
        k(   17) = (   0.1666667   0.2886751   0.0000000), wk =   0.0555556
        k(   18) = (   0.1666667   0.2886751   0.1030318), wk =   0.1111111
        k(   19) = (   0.1666667   0.2886751   0.2060637), wk =   0.1111111
        k(   20) = (   0.1666667   0.2886751  -0.3090955), wk =   0.0555556
        k(   21) = (   0.1666667   0.4811252   0.0000000), wk =   0.1111111
        k(   22) = (   0.1666667   0.4811252   0.1030318), wk =   0.2222222
        k(   23) = (   0.1666667   0.4811252   0.2060637), wk =   0.2222222
        k(   24) = (   0.1666667   0.4811252  -0.3090955), wk =   0.1111111
        k(   25) = (   0.3333333   0.5773503   0.0000000), wk =   0.0185185
        k(   26) = (   0.3333333   0.5773503   0.1030318), wk =   0.0370370
        k(   27) = (   0.3333333   0.5773503   0.2060637), wk =   0.0370370
        k(   28) = (   0.3333333   0.5773503  -0.3090955), wk =   0.0185185

     Dense  grid:   397277 G-vectors     FFT dimensions: (  81,  81, 144)

     Smooth grid:    74505 G-vectors     FFT dimensions: (  48,  48,  80)

     Estimated max dynamical RAM per process >     250.83 MB

     Estimated total dynamical RAM >       1.96 GB

     Check: negative core charge=   -0.000017

     Initial potential from superposition of free atoms

     starting charge     171.9963, renormalised to     176.0000

     negative rho (up, down):  6.092E-03 0.000E+00
     Starting wfcs are  144 randomized atomic wfcs
     Checking if some PAW data can be deallocated... 

     total cpu time spent up to now is        4.9 secs

     per-process dynamical memory:   201.2 Mb

     Self-consistent Calculation

     iteration #  1     ecut=    64.00 Ry     beta= 0.70
     Davidson diagonalization with overlap
     ethr =  1.00E-02,  avg # of iterations =  2.0

     negative rho (up, down):  2.167E-04 0.000E+00

     total cpu time spent up to now is       13.4 secs

     total energy              =   -3016.94875269 Ry
     estimated scf accuracy    <     116.59793445 Ry

     iteration #  2     ecut=    64.00 Ry     beta= 0.70
     Davidson diagonalization with overlap
     ethr =  1.00E-02,  avg # of iterations =  6.6

     total cpu time spent up to now is       30.2 secs

     total energy              =   -3075.91352852 Ry
     estimated scf accuracy    <     699.63776724 Ry

     iteration #  3     ecut=    64.00 Ry     beta= 0.70
     Davidson diagonalization with overlap
     ethr =  1.00E-02,  avg # of iterations =  5.0

     total cpu time spent up to now is       43.2 secs

     total energy              =   -3120.88111784 Ry
     estimated scf accuracy    <      91.82830089 Ry

     iteration #  4     ecut=    64.00 Ry     beta= 0.70
     Davidson diagonalization with overlap
     ethr =  1.00E-02,  avg # of iterations =  1.2

     negative rho (up, down):  5.886E-06 0.000E+00

     total cpu time spent up to now is       50.1 secs

     total energy              =   -3116.45557868 Ry
     estimated scf accuracy    <      54.57615159 Ry

     iteration #  5     ecut=    64.00 Ry     beta= 0.70
     Davidson diagonalization with overlap
     ethr =  1.00E-02,  avg # of iterations =  1.6

     negative rho (up, down):  1.073E-04 0.000E+00

     total cpu time spent up to now is       57.3 secs

     total energy              =   -3115.13228742 Ry
     estimated scf accuracy    <      41.87864889 Ry

     iteration #  6     ecut=    64.00 Ry     beta= 0.70
     Davidson diagonalization with overlap
     ethr =  1.00E-02,  avg # of iterations =  1.0

     negative rho (up, down):  4.113E-04 0.000E+00

     total cpu time spent up to now is       64.0 secs

     total energy              =   -3113.63027925 Ry
     estimated scf accuracy    <      26.06755129 Ry

     iteration #  7     ecut=    64.00 Ry     beta= 0.70
     Davidson diagonalization with overlap
     ethr =  1.00E-02,  avg # of iterations =  1.0

     negative rho (up, down):  1.003E-03 0.000E+00

     total cpu time spent up to now is       70.7 secs

     total energy              =   -3111.28319063 Ry
     estimated scf accuracy    <      18.43866861 Ry

     iteration #  8     ecut=    64.00 Ry     beta= 0.70
     Davidson diagonalization with overlap
     ethr =  1.00E-02,  avg # of iterations =  1.0

     negative rho (up, down):  1.427E-03 0.000E+00

     total cpu time spent up to now is       77.5 secs

     total energy              =   -3111.43665644 Ry
     estimated scf accuracy    <       6.16866397 Ry

     iteration #  9     ecut=    64.00 Ry     beta= 0.70
     Davidson diagonalization with overlap
     ethr =  3.50E-03,  avg # of iterations =  1.9

     negative rho (up, down):  2.192E-03 0.000E+00

     total cpu time spent up to now is       84.9 secs

     total energy              =   -3111.17584008 Ry
     estimated scf accuracy    <       4.41755248 Ry

     iteration # 10     ecut=    64.00 Ry     beta= 0.70
     Davidson diagonalization with overlap
     ethr =  2.51E-03,  avg # of iterations =  2.2

     negative rho (up, down):  5.398E-03 0.000E+00

     total cpu time spent up to now is       92.4 secs

     total energy              =   -3110.87952753 Ry
     estimated scf accuracy    <       1.44246077 Ry

     iteration # 11     ecut=    64.00 Ry     beta= 0.70
     Davidson diagonalization with overlap
     ethr =  8.20E-04,  avg # of iterations =  5.3

     negative rho (up, down):  4.100E-03 0.000E+00

     total cpu time spent up to now is      104.1 secs

     total energy              =   -3111.24064320 Ry
     estimated scf accuracy    <       6.94336939 Ry

     iteration # 12     ecut=    64.00 Ry     beta= 0.70
     Davidson diagonalization with overlap
     ethr =  8.20E-04,  avg # of iterations =  1.2

     negative rho (up, down):  1.922E-03 0.000E+00

     total cpu time spent up to now is      111.0 secs

     total energy              =   -3111.03745288 Ry
     estimated scf accuracy    <       1.49771595 Ry

     iteration # 13     ecut=    64.00 Ry     beta= 0.70
     Davidson diagonalization with overlap
     ethr =  8.20E-04,  avg # of iterations =  3.4

     negative rho (up, down):  2.731E-03 0.000E+00

     total cpu time spent up to now is      119.8 secs

     total energy              =   -3111.34104339 Ry
     estimated scf accuracy    <       1.54450050 Ry

     iteration # 14     ecut=    64.00 Ry     beta= 0.70
     Davidson diagonalization with overlap
     ethr =  8.20E-04,  avg # of iterations =  1.0

     negative rho (up, down):  3.306E-03 0.000E+00

     total cpu time spent up to now is      126.6 secs

     total energy              =   -3111.27937762 Ry
     estimated scf accuracy    <       0.87655122 Ry

     iteration # 15     ecut=    64.00 Ry     beta= 0.70
     Davidson diagonalization with overlap
     ethr =  4.98E-04,  avg # of iterations =  1.2

     negative rho (up, down):  3.404E-03 0.000E+00

     total cpu time spent up to now is      133.4 secs

     total energy              =   -3111.29540910 Ry
     estimated scf accuracy    <       0.13035898 Ry

     iteration # 16     ecut=    64.00 Ry     beta= 0.70
     Davidson diagonalization with overlap
     ethr =  7.41E-05,  avg # of iterations =  2.5

     negative rho (up, down):  3.442E-03 0.000E+00

     total cpu time spent up to now is      140.9 secs

     total energy              =   -3111.29663687 Ry
     estimated scf accuracy    <       0.06545802 Ry

     iteration # 17     ecut=    64.00 Ry     beta= 0.70
     Davidson diagonalization with overlap
     ethr =  3.72E-05,  avg # of iterations =  2.3

     negative rho (up, down):  3.590E-03 0.000E+00

     total cpu time spent up to now is      148.1 secs

     total energy              =   -3111.29261702 Ry
     estimated scf accuracy    <       0.06456099 Ry

     iteration # 18     ecut=    64.00 Ry     beta= 0.70
     Davidson diagonalization with overlap
     ethr =  3.67E-05,  avg # of iterations =  1.7

     negative rho (up, down):  3.711E-03 0.000E+00

     total cpu time spent up to now is      155.3 secs

     total energy              =   -3111.29213559 Ry
     estimated scf accuracy    <       0.01646368 Ry

     iteration # 19     ecut=    64.00 Ry     beta= 0.70
     Davidson diagonalization with overlap
     ethr =  9.35E-06,  avg # of iterations =  5.8

     negative rho (up, down):  3.709E-03 0.000E+00

     total cpu time spent up to now is      164.5 secs

     total energy              =   -3111.29361917 Ry
     estimated scf accuracy    <       0.00002117 Ry

     iteration # 20     ecut=    64.00 Ry     beta= 0.70
     Davidson diagonalization with overlap
     ethr =  1.20E-08,  avg # of iterations = 10.4

     negative rho (up, down):  3.712E-03 0.000E+00

     total cpu time spent up to now is      189.2 secs

     total energy              =   -3111.29383486 Ry
     estimated scf accuracy    <       0.00003436 Ry

     iteration # 21     ecut=    64.00 Ry     beta= 0.70
     Davidson diagonalization with overlap
     ethr =  1.20E-08,  avg # of iterations =  2.5

     negative rho (up, down):  3.721E-03 0.000E+00

     total cpu time spent up to now is      197.2 secs

     total energy              =   -3111.29383417 Ry
     estimated scf accuracy    <       0.00004971 Ry

     iteration # 22     ecut=    64.00 Ry     beta= 0.70
     Davidson diagonalization with overlap
     ethr =  1.20E-08,  avg # of iterations =  1.9

     negative rho (up, down):  3.725E-03 0.000E+00

     total cpu time spent up to now is      204.5 secs

     total energy              =   -3111.29383877 Ry
     estimated scf accuracy    <       0.00000818 Ry

     iteration # 23     ecut=    64.00 Ry     beta= 0.70
     Davidson diagonalization with overlap
     ethr =  4.65E-09,  avg # of iterations =  2.6

     negative rho (up, down):  3.722E-03 0.000E+00

     total cpu time spent up to now is      212.2 secs

     total energy              =   -3111.29383670 Ry
     estimated scf accuracy    <       0.00003020 Ry

     iteration # 24     ecut=    64.00 Ry     beta= 0.70
     Davidson diagonalization with overlap
     ethr =  4.65E-09,  avg # of iterations =  1.2

     negative rho (up, down):  3.721E-03 0.000E+00

     total cpu time spent up to now is      219.1 secs

     total energy              =   -3111.29383723 Ry
     estimated scf accuracy    <       0.00000288 Ry

     iteration # 25     ecut=    64.00 Ry     beta= 0.70
     Davidson diagonalization with overlap
     ethr =  1.64E-09,  avg # of iterations =  2.3

     negative rho (up, down):  3.721E-03 0.000E+00

     total cpu time spent up to now is      226.6 secs

     total energy              =   -3111.29383741 Ry
     estimated scf accuracy    <       0.00000004 Ry

     iteration # 26     ecut=    64.00 Ry     beta= 0.70
     Davidson diagonalization with overlap
     ethr =  2.33E-11,  avg # of iterations =  7.0

     negative rho (up, down):  3.721E-03 0.000E+00

     total cpu time spent up to now is      243.4 secs

     total energy              =   -3111.29383746 Ry
     estimated scf accuracy    <       0.00000046 Ry

     iteration # 27     ecut=    64.00 Ry     beta= 0.70
     Davidson diagonalization with overlap
     ethr =  2.33E-11,  avg # of iterations =  2.2

     negative rho (up, down):  3.722E-03 0.000E+00

     total cpu time spent up to now is      251.2 secs

     total energy              =   -3111.29383745 Ry
     estimated scf accuracy    <       0.00000012 Ry

     iteration # 28     ecut=    64.00 Ry     beta= 0.70
     Davidson diagonalization with overlap
     ethr =  2.33E-11,  avg # of iterations =  3.9

     negative rho (up, down):  3.721E-03 0.000E+00

     total cpu time spent up to now is      260.1 secs

     End of self-consistent calculation

          k = 0.0000 0.0000 0.0000 (  9343 PWs)   bands (ev):

   -70.7865 -70.7639 -70.7282 -70.7054 -70.7009 -70.7009 -70.7008 -70.7008
   -40.8817 -40.8675 -40.8322 -40.8169 -37.1845 -37.1144 -37.0053 -36.8860
   -36.8860 -36.8660 -36.8660 -36.8523 -36.8523 -36.7926 -36.7806 -36.7395
   -36.7395 -36.7375 -36.7375 -36.6382 -36.6365 -36.6365 -36.6352 -36.6352
   -36.6260 -36.6260 -36.6139 -36.6138 -17.1732 -17.1732 -17.1592 -17.1592
   -17.1579 -17.1562 -17.0173 -17.0142 -16.9999 -16.9999 -16.9853 -16.9853
     8.6211  10.6533  11.4283  12.0203  12.5102  12.6107  12.7705  12.7705
    12.9922  12.9922  13.2020  13.2959  13.3869  13.3869  13.8288  13.8288
    13.9678  13.9678  14.2099  14.2967  14.2967  14.3224  14.3224  14.7804
    14.7804  14.9167  15.3959  15.3959  15.5168  15.5168  15.8309  15.9136
    15.9136  15.9162  15.9162  16.0657  16.0657  16.0726  16.0731  16.1344
    16.1616  16.1616  16.2351  16.2786  16.2786  16.7325  16.7325  16.7579
    16.9917  16.9917  17.2889  17.2889  17.4930  17.4930  17.5154  17.5158
    17.7884  17.7884

          k = 0.0000 0.0000 0.1030 (  9302 PWs)   bands (ev):

   -70.7854 -70.7662 -70.7258 -70.7064 -70.7008 -70.7008 -70.7008 -70.7008
   -40.8809 -40.8688 -40.8308 -40.8177 -37.1811 -37.1229 -36.9917 -36.8854
   -36.8854 -36.8705 -36.8705 -36.8442 -36.8442 -36.8309 -36.7634 -36.7634
   -36.7450 -36.7138 -36.7138 -36.6434 -36.6434 -36.6429 -36.6312 -36.6312
   -36.6264 -36.6264 -36.6138 -36.6138 -17.1723 -17.1723 -17.1602 -17.1602
   -17.1575 -17.1560 -17.0173 -17.0147 -16.9988 -16.9988 -16.9862 -16.9862
     8.6980  10.3033  11.7188  12.0209  12.4096  12.7838  12.7838  12.8008
    12.9743  12.9743  13.0499  13.3976  13.4136  13.4136  13.8060  13.8060
    13.9502  13.9502  14.1856  14.1856  14.2775  14.4668  14.4668  14.8363
    14.8363  14.9515  15.3220  15.3220  15.4271  15.4271  15.7085  15.8576
    15.9300  15.9300  16.0229  16.0229  16.0573  16.0573  16.0772  16.1302
    16.1666  16.1666  16.2184  16.2184  16.3735  16.8012  16.8012  16.9749
    16.9819  16.9819  17.2810  17.2810  17.4953  17.4953  17.5155  17.5157
    17.7718  17.7718

          k = 0.0000 0.0000 0.2061 (  9296 PWs)   bands (ev):

   -70.7822 -70.7715 -70.7205 -70.7096 -70.7008 -70.7008 -70.7008 -70.7008
   -40.8789 -40.8720 -40.8274 -40.8200 -37.1724 -37.1406 -36.9601 -36.8836
   -36.8836 -36.8765 -36.8765 -36.8760 -36.8290 -36.8290 -36.7876 -36.7876
   -36.7085 -36.6911 -36.6911 -36.6566 -36.6551 -36.6551 -36.6286 -36.6286
   -36.6267 -36.6267 -36.6138 -36.6137 -17.1699 -17.1699 -17.1629 -17.1629
   -17.1567 -17.1559 -17.0172 -17.0157 -16.9960 -16.9960 -16.9887 -16.9887
     8.9248   9.7671  11.9857  12.0227  12.4612  12.8209  12.8209  12.8613
    12.9293  12.9293  13.0632  13.4145  13.4867  13.4867  13.7142  13.7142
    13.9604  13.9604  14.0883  14.0883  14.5049  14.6583  14.6583  14.9456
    14.9456  15.0372  15.1582  15.1582  15.2838  15.2838  15.4732  15.4963
    15.9623  15.9623  16.0276  16.0276  16.0831  16.0831  16.0883  16.1189
    16.1216  16.1216  16.3308  16.3308  16.6175  16.8055  16.8055  17.0158
    17.0158  17.2432  17.2432  17.4126  17.5155  17.5459  17.5459  17.5644
    17.7209  17.7209

          k = 0.0000 0.0000-0.3091 (  9374 PWs)   bands (ev):

   -70.7774 -70.7773 -70.7147 -70.7147 -70.7009 -70.7009 -70.7009 -70.7009
   -40.8757 -40.8757 -40.8234 -40.8234 -37.1587 -37.1587 -36.9201 -36.9201
   -36.8810 -36.8810 -36.8810 -36.8810 -36.8101 -36.8101 -36.8101 -36.8101
   -36.6788 -36.6788 -36.6713 -36.6713 -36.6713 -36.6713 -36.6276 -36.6276
   -36.6276 -36.6276 -36.6139 -36.6139 -17.1665 -17.1665 -17.1665 -17.1665
   -17.1561 -17.1561 -17.0167 -17.0167 -16.9923 -16.9923 -16.9923 -16.9923
     9.2893   9.2893  12.0247  12.0247  12.6681  12.6681  12.8733  12.8733
    12.8733  12.8733  13.2900  13.2900  13.5932  13.5932  13.5932  13.5932
    14.0121  14.0121  14.0121  14.0121  14.8683  14.8683  14.8683  14.8683
    14.8803  14.8803  15.1535  15.1535  15.1535  15.1535  15.3221  15.3221
    16.0029  16.0029  16.0029  16.0029  16.0695  16.0695  16.0695  16.0695
    16.1035  16.1035  16.5924  16.5924  16.5924  16.5924  16.9926  16.9926
    17.1506  17.1506  17.1506  17.1506  17.5156  17.5156  17.6383  17.6383
    17.6383  17.6383

          k = 0.0000 0.1925 0.0000 (  9308 PWs)   bands (ev):

   -70.7830 -70.7602 -70.7281 -70.7136 -70.7045 -70.7009 -70.7008 -70.6960
   -40.8789 -40.8645 -40.8352 -40.8198 -37.1627 -37.0929 -37.0025 -36.8849
   -36.8723 -36.8713 -36.8560 -36.8521 -36.8504 -36.7856 -36.7807 -36.7467
   -36.7394 -36.7382 -36.7376 -36.6528 -36.6475 -36.6437 -36.6396 -36.6364
   -36.6349 -36.6331 -36.6205 -36.6192 -17.1876 -17.1776 -17.1631 -17.1600
   -17.1549 -17.1352 -17.0335 -17.0101 -17.0052 -16.9957 -16.9811 -16.9776
     8.8874  10.8567  11.6065  12.1324  12.5505  12.6058  12.7174  12.8131
    12.9033  13.1566  13.1586  13.3984  13.4412  13.4700  13.7839  13.8822
    13.9686  14.0714  14.2473  14.2858  14.2974  14.3236  14.3692  14.6343
    14.7063  14.7150  15.0284  15.2243  15.2299  15.2837  15.4985  15.5740
    15.7663  15.8590  15.8839  15.9628  16.0061  16.0709  16.1162  16.1972
    16.2194  16.3096  16.3305  16.3598  16.4929  16.6294  16.8055  16.8970
    16.9088  17.0162  17.2911  17.3023  17.3373  17.5257  17.5455  17.5511
    17.5794  17.9201

          k = 0.0000 0.1925 0.1030 (  9323 PWs)   bands (ev):

   -70.7819 -70.7626 -70.7261 -70.7140 -70.7042 -70.7009 -70.7008 -70.6968
   -40.8782 -40.8660 -40.8337 -40.8206 -37.1600 -37.1022 -36.9890 -36.8845
   -36.8773 -36.8719 -36.8593 -36.8481 -36.8402 -36.8234 -36.7678 -36.7630
   -36.7446 -36.7184 -36.7146 -36.6545 -36.6487 -36.6477 -36.6409 -36.6360
   -36.6357 -36.6348 -36.6203 -36.6192 -17.1861 -17.1767 -17.1642 -17.1634
   -17.1520 -17.1362 -17.0325 -17.0142 -17.0008 -16.9947 -16.9820 -16.9789
     8.9624  10.5208  11.8818  12.1334  12.4560  12.6595  12.7843  12.8322
    12.9385  13.1257  13.1337  13.3694  13.4723  13.5032  13.7787  13.8675
    13.9393  14.0375  14.1388  14.2202  14.3282  14.4469  14.5051  14.6950
    14.7405  14.7641  15.0298  15.1713  15.1887  15.2591  15.5133  15.5578
    15.6854  15.8096  15.8599  15.9307  16.0090  16.0409  16.1215  16.1728
    16.2054  16.2966  16.3078  16.4029  16.5007  16.6891  16.7915  16.9113
    16.9620  17.0976  17.2849  17.3241  17.3370  17.4719  17.5472  17.5739
    17.6274  17.8958

          k = 0.0000 0.1925 0.2061 (  9307 PWs)   bands (ev):

   -70.7787 -70.7679 -70.7218 -70.7152 -70.7031 -70.7008 -70.7008 -70.6988
   -40.8762 -40.8693 -40.8302 -40.8228 -37.1514 -37.1203 -36.9584 -36.8929
   -36.8807 -36.8706 -36.8647 -36.8582 -36.8326 -36.8257 -36.7914 -36.7863
   -36.7115 -36.6981 -36.6922 -36.6600 -36.6579 -36.6556 -36.6427 -36.6406
   -36.6351 -36.6348 -36.6199 -36.6193 -17.1819 -17.1742 -17.1694 -17.1670
   -17.1474 -17.1388 -17.0297 -17.0198 -16.9944 -16.9919 -16.9846 -16.9826
     9.1836  10.0025  12.1218  12.1413  12.4859  12.6870  12.8066  12.8861
    13.0290  13.0520  13.1157  13.3695  13.5211  13.5528  13.7035  13.7886
    13.9496  14.0194  14.0609  14.1276  14.4549  14.6590  14.6784  14.7930
    14.8397  14.8445  14.9960  15.0830  15.1012  15.1790  15.3559  15.4421
    15.6737  15.8085  15.8585  15.8959  15.9216  16.0252  16.0601  16.0994
    16.2011  16.2966  16.3321  16.5085  16.5603  16.6930  16.7384  16.8249
    17.0764  17.2469  17.2675  17.3461  17.3947  17.5144  17.5408  17.6186
    17.6251  17.8262

          k = 0.0000 0.1925-0.3091 (  9324 PWs)   bands (ev):

   -70.7738 -70.7738 -70.7178 -70.7178 -70.7012 -70.7012 -70.7009 -70.7008
   -40.8730 -40.8730 -40.8262 -40.8262 -37.1379 -37.1379 -36.9226 -36.9226
   -36.8750 -36.8750 -36.8684 -36.8684 -36.8136 -36.8136 -36.8076 -36.8076
   -36.6905 -36.6905 -36.6731 -36.6731 -36.6654 -36.6654 -36.6426 -36.6426
   -36.6349 -36.6349 -36.6196 -36.6196 -17.1760 -17.1760 -17.1707 -17.1707
   -17.1428 -17.1428 -17.0253 -17.0253 -16.9881 -16.9881 -16.9880 -16.9880
     9.5386   9.5386  12.1445  12.1445  12.6294  12.6294  12.8955  12.8955
    12.9648  12.9648  13.2887  13.2887  13.5889  13.5889  13.6656  13.6656
    14.0027  14.0027  14.0583  14.0583  14.6793  14.6793  14.8233  14.8233
    14.8893  14.8893  14.9603  14.9603  15.1005  15.1005  15.2810  15.2810
    15.7879  15.7879  15.8475  15.8475  15.9267  15.9267  16.0582  16.0582
    16.2500  16.2500  16.4925  16.4925  16.6526  16.6526  16.6899  16.6899
    17.1787  17.1787  17.3514  17.3514  17.4734  17.4734  17.5402  17.5402
    17.7248  17.7248

          k = 0.0000 0.3849 0.0000 (  9302 PWs)   bands (ev):

   -70.7743 -70.7510 -70.7281 -70.7258 -70.7138 -70.7008 -70.7008 -70.6926
   -40.8718 -40.8569 -40.8430 -40.8275 -37.1106 -37.0419 -36.9972 -36.9002
   -36.8698 -36.8622 -36.8522 -36.8378 -36.8096 -36.7811 -36.7760 -36.7574
   -36.7415 -36.7397 -36.7383 -36.7087 -36.6810 -36.6799 -36.6668 -36.6462
   -36.6363 -36.6246 -36.6245 -36.6210 -17.1964 -17.1859 -17.1705 -17.1690
   -17.1449 -17.1075 -17.0591 -17.0169 -17.0007 -16.9880 -16.9732 -16.9716
     9.6369  11.3616  12.0251  12.0535  12.4060  12.5966  12.6535  12.9390
    13.0045  13.0766  13.5596  13.5727  13.5923  13.6391  13.7348  13.9242
    14.0048  14.1446  14.2488  14.2812  14.3288  14.3709  14.4147  14.4458
    14.4967  14.5448  14.5480  14.7745  14.7882  14.8865  14.9763  15.0828
    15.1005  15.4022  15.7147  15.9966  16.0869  16.1423  16.1503  16.1972
    16.2051  16.3352  16.4135  16.6305  16.6435  16.7423  16.7493  16.8468
    16.8567  17.0238  17.0288  17.3398  17.3953  17.6205  17.6779  17.6940
    17.7414  18.2418

          k = 0.0000 0.3849 0.1030 (  9295 PWs)   bands (ev):

   -70.7732 -70.7535 -70.7275 -70.7258 -70.7119 -70.7008 -70.7008 -70.6937
   -40.8712 -40.8588 -40.8411 -40.8281 -37.1081 -37.0536 -36.9826 -36.9031
   -36.8723 -36.8541 -36.8506 -36.8384 -36.8085 -36.8081 -36.7774 -36.7598
   -36.7483 -36.7296 -36.7185 -36.7055 -36.6815 -36.6765 -36.6660 -36.6493
   -36.6395 -36.6280 -36.6237 -36.6210 -17.1945 -17.1850 -17.1716 -17.1705
   -17.1435 -17.1116 -17.0551 -17.0198 -16.9978 -16.9869 -16.9741 -16.9732
     9.7057  11.0936  11.9845  12.3273  12.3598  12.6140  12.6819  12.9416
    12.9683  13.1439  13.4667  13.4913  13.6590  13.7167  13.7420  13.9103
    13.9933  14.1008  14.2107  14.2758  14.2997  14.3063  14.3930  14.4880
    14.5507  14.5978  14.6604  14.7766  14.7992  14.9460  14.9771  15.0603
    15.1228  15.4210  15.7147  15.8963  16.0225  16.0620  16.1042  16.1569
    16.2155  16.3796  16.3945  16.6370  16.6515  16.7138  16.7327  16.8488
    16.8803  17.0700  17.1750  17.2906  17.3735  17.4906  17.6499  17.7206
    17.9704  18.1955

          k = 0.0000 0.3849 0.2061 (  9298 PWs)   bands (ev):

   -70.7700 -70.7591 -70.7266 -70.7259 -70.7072 -70.7009 -70.7008 -70.6969
   -40.8693 -40.8626 -40.8372 -40.8302 -37.1006 -37.0722 -36.9564 -36.9128
   -36.8702 -36.8471 -36.8412 -36.8400 -36.8354 -36.8030 -36.7989 -36.7785
   -36.7322 -36.7226 -36.7010 -36.6916 -36.6838 -36.6665 -36.6628 -36.6585
   -36.6473 -36.6379 -36.6225 -36.6212 -17.1894 -17.1823 -17.1752 -17.1746
   -17.1388 -17.1208 -17.0460 -17.0267 -16.9914 -16.9841 -16.9777 -16.9767
     9.9078  10.6446  12.0368  12.2501  12.5954  12.6586  12.7478  12.8939
    13.0521  13.1991  13.3265  13.3731  13.7441  13.7538  13.8064  13.8962
    13.9427  14.0426  14.1818  14.1948  14.2430  14.3255  14.4538  14.5304
    14.5835  14.6233  14.7236  14.8483  14.8586  14.9734  15.0006  15.0552
    15.2586  15.5028  15.6979  15.7668  15.8585  15.9333  15.9527  16.0080
    16.2586  16.3534  16.4438  16.6269  16.6859  16.7027  16.7117  16.8497
    16.9484  17.1340  17.1712  17.3098  17.3820  17.5197  17.6439  17.8175
    17.9884  18.0901

          k = 0.0000 0.3849-0.3091 (  9294 PWs)   bands (ev):

   -70.7650 -70.7650 -70.7262 -70.7262 -70.7017 -70.7017 -70.7008 -70.7008
   -40.8663 -40.8663 -40.8333 -40.8333 -37.0885 -37.0885 -36.9310 -36.9310
   -36.8594 -36.8594 -36.8431 -36.8431 -36.8199 -36.8199 -36.7932 -36.7932
   -36.7242 -36.7242 -36.6893 -36.6893 -36.6734 -36.6734 -36.6562 -36.6562
   -36.6520 -36.6520 -36.6217 -36.6217 -17.1823 -17.1823 -17.1785 -17.1785
   -17.1307 -17.1307 -17.0359 -17.0359 -16.9841 -16.9841 -16.9803 -16.9803
    10.2298  10.2298  12.1317  12.1317  12.6794  12.6794  12.8376  12.8376
    13.1785  13.1785  13.2680  13.2680  13.7765  13.7765  13.8455  13.8455
    13.9813  13.9813  14.1963  14.1963  14.2541  14.2541  14.5125  14.5125
    14.6051  14.6051  14.7923  14.7923  14.9576  14.9576  15.0329  15.0329
    15.5150  15.5150  15.6624  15.6624  15.7980  15.7980  15.8978  15.8978
    16.3173  16.3173  16.5455  16.5455  16.6615  16.6615  16.7996  16.7996
    17.0520  17.0520  17.2151  17.2151  17.5403  17.5403  17.7536  17.7536
    17.9586  17.9586

          k = 0.0000-0.5774 0.0000 (  9312 PWs)   bands (ev):

   -70.7683 -70.7439 -70.7329 -70.7281 -70.7209 -70.7009 -70.7008 -70.6916
   -40.8660 -40.8508 -40.8492 -40.8336 -37.0763 -37.0061 -36.9942 -36.9264
   -36.8647 -36.8560 -36.8521 -36.8137 -36.7808 -36.7761 -36.7716 -36.7574
   -36.7566 -36.7400 -36.7398 -36.7388 -36.7189 -36.6942 -36.6898 -36.6500
   -36.6363 -36.6253 -36.6212 -36.6208 -17.1975 -17.1899 -17.1746 -17.1740
   -17.1384 -17.0946 -17.0718 -17.0239 -16.9950 -16.9844 -16.9711 -16.9695
    10.4874  11.0680  12.0046  12.1883  12.3586  12.6483  12.8088  12.8830
    13.0194  13.1995  13.6235  13.6475  13.7063  13.9025  13.9606  13.9686
    13.9870  14.0277  14.1180  14.2879  14.3378  14.3922  14.3965  14.4080
    14.4480  14.4832  14.5024  14.5444  14.5487  14.5616  14.6888  14.7438
    14.7748  15.0619  15.7536  16.0542  16.0698  16.1209  16.1501  16.2222
    16.2510  16.2951  16.3066  16.5653  16.6456  16.8313  16.9107  16.9625
    17.0334  17.0613  17.1304  17.1567  17.4146  17.5401  17.5638  17.6747
    17.8548  18.2061

          k = 0.0000-0.5774 0.1030 (  9302 PWs)   bands (ev):

   -70.7672 -70.7464 -70.7329 -70.7303 -70.7162 -70.7009 -70.7008 -70.6928
   -40.8655 -40.8543 -40.8456 -40.8341 -37.0741 -37.0228 -36.9763 -36.9274
   -36.8659 -36.8497 -36.8494 -36.8163 -36.7988 -36.7830 -36.7710 -36.7574
   -36.7564 -36.7516 -36.7296 -36.7229 -36.7191 -36.6865 -36.6855 -36.6533
   -36.6399 -36.6243 -36.6242 -36.6212 -17.1956 -17.1889 -17.1752 -17.1751
   -17.1381 -17.1028 -17.0637 -17.0253 -16.9937 -16.9833 -16.9727 -16.9704
    10.5438  11.1099  11.7608  12.0893  12.5586  12.6641  12.7958  12.8823
    13.0545  13.2057  13.5874  13.6446  13.6999  13.9387  13.9579  13.9803
    14.0072  14.0084  14.0847  14.2144  14.2895  14.3711  14.4028  14.4161
    14.4292  14.4466  14.4926  14.5233  14.6525  14.6736  14.6859  14.7620
    14.8819  15.1299  15.7544  15.9784  16.0036  16.0939  16.1162  16.1410
    16.2086  16.2120  16.4893  16.6383  16.6889  16.7153  16.8043  16.8661
    16.9964  17.1652  17.1977  17.2811  17.3407  17.5024  17.7120  17.7438
    17.8467  18.1952

          k = 0.0000-0.5774 0.2061 (  9312 PWs)   bands (ev):

   -70.7638 -70.7522 -70.7328 -70.7319 -70.7088 -70.7009 -70.7008 -70.6963
   -40.8639 -40.8582 -40.8417 -40.8357 -37.0675 -37.0415 -36.9551 -36.9310
   -36.8623 -36.8432 -36.8360 -36.8259 -36.8238 -36.8003 -36.7695 -36.7606
   -36.7568 -36.7564 -36.7235 -36.7196 -36.6991 -36.6747 -36.6692 -36.6630
   -36.6490 -36.6347 -36.6228 -36.6215 -17.1904 -17.1861 -17.1782 -17.1779
   -17.1353 -17.1160 -17.0507 -17.0301 -16.9894 -16.9804 -16.9771 -16.9730
    10.7075  11.1636  11.4878  11.8503  12.6649  12.7572  12.8106  12.9045
    13.1556  13.2534  13.4818  13.4895  13.7846  13.9367  13.9374  13.9546
    13.9782  14.0250  14.1285  14.1620  14.2969  14.3813  14.3907  14.3912
    14.4306  14.4557  14.4604  14.5044  14.6467  14.6655  14.8056  14.8069
    15.1708  15.3356  15.7318  15.7918  15.8824  15.9403  15.9913  16.0543
    16.2092  16.2312  16.5850  16.5887  16.7101  16.7512  16.8154  16.8217
    16.8374  17.1813  17.2730  17.3409  17.4776  17.4953  17.7843  17.8928
    17.8934  18.0901

          k = 0.0000-0.5774-0.3091 (  9284 PWs)   bands (ev):

   -70.7585 -70.7585 -70.7324 -70.7324 -70.7018 -70.7018 -70.7008 -70.7008
   -40.8615 -40.8615 -40.8383 -40.8383 -37.0565 -37.0565 -36.9394 -36.9394
   -36.8488 -36.8488 -36.8337 -36.8337 -36.8190 -36.8190 -36.7662 -36.7662
   -36.7564 -36.7564 -36.7208 -36.7208 -36.6784 -36.6784 -36.6613 -36.6613
   -36.6503 -36.6503 -36.6219 -36.6219 -17.1837 -17.1837 -17.1822 -17.1822
   -17.1277 -17.1277 -17.0389 -17.0389 -16.9832 -16.9832 -16.9766 -16.9766
    10.9551  10.9551  11.5913  11.5913  12.7079  12.7079  12.9099  12.9099
    13.3096  13.3096  13.3531  13.3531  13.8737  13.8737  13.9339  13.9339
    13.9596  13.9596  14.2061  14.2061  14.3579  14.3579  14.3803  14.3803
    14.4121  14.4121  14.4852  14.4852  14.6487  14.6487  14.8391  14.8391
    15.5046  15.5046  15.5878  15.5878  15.8361  15.8361  15.9649  15.9649
    16.2303  16.2303  16.6299  16.6299  16.6641  16.6641  16.8206  16.8206
    16.9933  16.9933  17.3399  17.3399  17.6588  17.6588  17.6834  17.6834
    18.0487  18.0487

          k = 0.1667 0.2887 0.0000 (  9295 PWs)   bands (ev):

   -70.7768 -70.7537 -70.7281 -70.7227 -70.7111 -70.7008 -70.7008 -70.6933
   -40.8739 -40.8592 -40.8408 -40.8252 -37.1245 -37.0555 -36.9984 -36.8894
   -36.8840 -36.8602 -36.8528 -36.8444 -36.8202 -36.7810 -36.7765 -36.7555
   -36.7409 -36.7392 -36.7390 -36.6982 -36.6772 -36.6487 -36.6432 -36.6429
   -36.6375 -36.6346 -36.6326 -36.6266 -17.1936 -17.1865 -17.1707 -17.1663
   -17.1450 -17.1123 -17.0540 -17.0160 -17.0032 -16.9884 -16.9739 -16.9733
     9.3968  11.2284  11.9183  12.2347  12.5172  12.5430  12.6059  12.8702
    13.0003  13.0206  13.3757  13.5218  13.5819  13.6521  13.7162  13.9126
    13.9511  14.1643  14.2163  14.2953  14.3408  14.4204  14.4403  14.4448
    14.5285  14.5901  14.6334  14.7912  14.9273  15.0351  15.1403  15.2998
    15.3427  15.4919  15.7610  15.8356  15.9378  16.0839  16.1835  16.2330
    16.2373  16.3230  16.5286  16.5505  16.5927  16.6600  16.7697  16.9214
    16.9474  17.0960  17.2246  17.2850  17.2984  17.3093  17.7422  17.7889
    17.7965  17.8727

          k = 0.1667 0.2887 0.1030 (  9298 PWs)   bands (ev):

   -70.7757 -70.7562 -70.7269 -70.7228 -70.7098 -70.7009 -70.7008 -70.6943
   -40.8732 -40.8609 -40.8390 -40.8259 -37.1220 -37.0663 -36.9844 -36.8946
   -36.8827 -36.8548 -36.8521 -36.8436 -36.8181 -36.8124 -36.7729 -36.7639
   -36.7454 -36.7244 -36.7184 -36.6970 -36.6751 -36.6509 -36.6473 -36.6415
   -36.6389 -36.6351 -36.6325 -36.6291 -17.1918 -17.1855 -17.1718 -17.1680
   -17.1435 -17.1154 -17.0510 -17.0194 -16.9999 -16.9873 -16.9754 -16.9743
     9.4679  10.9238  12.1576  12.2362  12.5144  12.5297  12.5862  12.9822
    12.9949  13.0354  13.3271  13.4691  13.6135  13.6573  13.7291  13.9206
    13.9457  14.0911  14.1826  14.2437  14.3538  14.3806  14.4783  14.4849
    14.5914  14.6279  14.7338  14.8483  14.9044  15.0203  15.1759  15.2825
    15.3170  15.5019  15.7412  15.7751  15.9000  16.0444  16.1523  16.1866
    16.2003  16.3128  16.4187  16.6177  16.6318  16.7118  16.7411  16.9140
    16.9837  17.1480  17.2369  17.2858  17.3301  17.3433  17.6160  17.7621
    17.8309  17.9324

          k = 0.1667 0.2887 0.2061 (  9297 PWs)   bands (ev):

   -70.7725 -70.7616 -70.7250 -70.7231 -70.7062 -70.7009 -70.7008 -70.6972
   -40.8713 -40.8645 -40.8352 -40.8280 -37.1142 -37.0848 -36.9567 -36.9074
   -36.8777 -36.8504 -36.8501 -36.8423 -36.8355 -36.8113 -36.7960 -36.7827
   -36.7247 -36.7132 -36.6974 -36.6898 -36.6681 -36.6578 -36.6557 -36.6436
   -36.6410 -36.6386 -36.6323 -36.6318 -17.1869 -17.1828 -17.1748 -17.1730
   -17.1388 -17.1228 -17.0436 -17.0263 -16.9933 -16.9845 -16.9796 -16.9769
     9.6769  10.4448  12.2475  12.3388  12.4790  12.5546  12.7105  12.9703
    13.0653  13.1447  13.2315  13.3699  13.6574  13.6724  13.7343  13.9000
    13.9729  14.0208  14.1303  14.1491  14.3296  14.4232  14.5597  14.5815
    14.6590  14.6622  14.8707  14.8740  14.9526  14.9945  15.1507  15.2494
    15.3571  15.5405  15.6635  15.7652  15.8386  15.9166  15.9732  16.0193
    16.1919  16.2980  16.4930  16.6092  16.6666  16.6882  16.7306  16.8521
    17.0962  17.2298  17.2661  17.3191  17.3749  17.4445  17.5420  17.6797
    17.7873  17.9416

          k = 0.1667 0.2887-0.3091 (  9310 PWs)   bands (ev):

   -70.7676 -70.7676 -70.7237 -70.7237 -70.7016 -70.7016 -70.7008 -70.7008
   -40.8682 -40.8682 -40.8313 -40.8313 -37.1016 -37.1016 -36.9286 -36.9286
   -36.8666 -36.8666 -36.8482 -36.8482 -36.8177 -36.8177 -36.7993 -36.7993
   -36.7143 -36.7143 -36.6830 -36.6830 -36.6646 -36.6646 -36.6554 -36.6554
   -36.6404 -36.6404 -36.6322 -36.6322 -17.1806 -17.1806 -17.1783 -17.1783
   -17.1314 -17.1314 -17.0348 -17.0348 -16.9861 -16.9861 -16.9805 -16.9805
    10.0111  10.0111  12.2835  12.2835  12.5525  12.5525  12.8681  12.8681
    13.1327  13.1327  13.2751  13.2751  13.6691  13.6691  13.7963  13.7963
    14.0129  14.0129  14.1195  14.1195  14.3787  14.3787  14.6210  14.6210
    14.6714  14.6714  14.9224  14.9224  14.9604  14.9604  15.1603  15.1603
    15.5110  15.5110  15.7529  15.7529  15.7735  15.7735  15.8908  15.8908
    16.2505  16.2505  16.5710  16.5710  16.6687  16.6687  16.7644  16.7644
    17.2121  17.2121  17.2847  17.2847  17.4710  17.4710  17.5936  17.5936
    17.8149  17.8149

          k = 0.1667 0.4811 0.0000 (  9281 PWs)   bands (ev):

   -70.7683 -70.7439 -70.7329 -70.7281 -70.7209 -70.7009 -70.7008 -70.6915
   -40.8659 -40.8507 -40.8492 -40.8336 -37.0717 -37.0023 -36.9942 -36.9287
   -36.8837 -36.8631 -36.8547 -36.8045 -36.7814 -36.7779 -36.7705 -36.7587
   -36.7573 -36.7440 -36.7427 -36.7328 -36.6922 -36.6868 -36.6733 -36.6467
   -36.6395 -36.6391 -36.6382 -36.6211 -17.1971 -17.1916 -17.1785 -17.1755
   -17.1298 -17.0877 -17.0771 -17.0319 -16.9938 -16.9810 -16.9754 -16.9652
    10.2926  11.5186  11.9234  12.3146  12.3297  12.6093  12.6552  12.8394
    12.8849  13.1360  13.6550  13.7045  13.7681  13.8298  13.8433  13.9114
    13.9135  14.0390  14.1902  14.2088  14.2389  14.3161  14.4092  14.4230
    14.4901  14.5046  14.5312  14.5526  14.6213  14.7095  14.8373  14.8565
    14.9883  15.1298  15.6584  15.7843  15.9440  15.9553  16.0848  16.1523
    16.3923  16.4269  16.4582  16.6050  16.6795  16.7251  16.8277  16.9532
    17.1295  17.1305  17.2099  17.2261  17.3240  17.4628  17.7260  17.7930
    17.9233  18.0298

          k = 0.1667 0.4811 0.1030 (  9284 PWs)   bands (ev):

   -70.7672 -70.7464 -70.7329 -70.7303 -70.7162 -70.7008 -70.7008 -70.6927
   -40.8654 -40.8543 -40.8456 -40.8342 -37.0695 -37.0196 -36.9763 -36.9301
   -36.8817 -36.8586 -36.8522 -36.8080 -36.7984 -36.7835 -36.7744 -36.7673
   -36.7524 -36.7472 -36.7259 -36.7220 -36.6883 -36.6844 -36.6719 -36.6502
   -36.6427 -36.6392 -36.6371 -36.6244 -17.1957 -17.1901 -17.1797 -17.1754
   -17.1302 -17.0987 -17.0663 -17.0324 -16.9932 -16.9799 -16.9768 -16.9662
    10.3539  11.4740  11.7487  12.2557  12.5474  12.5598  12.6701  12.8221
    12.9642  13.1631  13.5974  13.6550  13.7874  13.8128  13.8894  13.9037
    13.9583  14.0435  14.0922  14.1582  14.2541  14.2720  14.3671  14.4436
    14.4592  14.5143  14.5423  14.5904  14.6503  14.7963  14.8569  14.9229
    15.0280  15.1672  15.6533  15.7523  15.8468  15.9797  16.0700  16.1162
    16.2641  16.3426  16.5671  16.6143  16.6902  16.7013  16.8419  16.9762
    17.0860  17.1417  17.1988  17.2772  17.3361  17.4499  17.6604  17.9054
    17.9588  18.0068

          k = 0.1667 0.4811 0.2061 (  9292 PWs)   bands (ev):

   -70.7638 -70.7522 -70.7328 -70.7319 -70.7088 -70.7008 -70.7008 -70.6963
   -40.8639 -40.8582 -40.8417 -40.8358 -37.0631 -37.0377 -36.9573 -36.9348
   -36.8729 -36.8480 -36.8456 -36.8278 -36.8147 -36.8015 -36.7749 -36.7717
   -36.7507 -36.7490 -36.7087 -36.7050 -36.6850 -36.6721 -36.6662 -36.6594
   -36.6500 -36.6407 -36.6366 -36.6323 -17.1922 -17.1861 -17.1830 -17.1766
   -17.1290 -17.1123 -17.0530 -17.0351 -16.9907 -16.9809 -16.9768 -16.9690
    10.5331  11.1684  11.7702  12.1202  12.5378  12.6332  12.7781  12.8312
    13.1196  13.2329  13.4722  13.5203  13.8092  13.8432  13.8914  13.9189
    13.9654  14.0334  14.0536  14.1322  14.2192  14.2820  14.3403  14.3739
    14.4316  14.4861  14.5523  14.6069  14.7254  14.8439  14.9624  14.9953
    15.2137  15.3208  15.6286  15.6531  15.7171  15.8679  16.0150  16.0777
    16.1445  16.2342  16.5915  16.6412  16.6724  16.7488  16.8654  16.9823
    17.0619  17.1406  17.2422  17.2943  17.3320  17.4795  17.6777  17.8334
    17.9765  18.1302

          k = 0.1667 0.4811-0.3091 (  9292 PWs)   bands (ev):

   -70.7586 -70.7586 -70.7325 -70.7325 -70.7018 -70.7018 -70.7008 -70.7008
   -40.8614 -40.8614 -40.8383 -40.8383 -37.0524 -37.0524 -36.9434 -36.9434
   -36.8547 -36.8547 -36.8397 -36.8397 -36.8165 -36.8165 -36.7740 -36.7740
   -36.7499 -36.7499 -36.7008 -36.7008 -36.6735 -36.6735 -36.6610 -36.6610
   -36.6511 -36.6511 -36.6360 -36.6360 -17.1877 -17.1877 -17.1805 -17.1805
   -17.1231 -17.1231 -17.0421 -17.0421 -16.9861 -16.9861 -16.9728 -16.9728
    10.8154  10.8154  11.9298  11.9298  12.5904  12.5904  12.8324  12.8324
    13.2978  13.2978  13.3722  13.3722  13.8398  13.8398  13.8842  13.8842
    14.0078  14.0078  14.0900  14.0900  14.2487  14.2487  14.3636  14.3636
    14.4309  14.4309  14.5691  14.5691  14.8004  14.8004  15.0317  15.0317
    15.4283  15.4283  15.5758  15.5758  15.6854  15.6854  15.9985  15.9985
    16.1713  16.1713  16.6261  16.6261  16.7119  16.7119  16.9239  16.9239
    17.0992  17.0992  17.2736  17.2736  17.4345  17.4345  17.7522  17.7522
    18.0057  18.0057

          k = 0.3333 0.5774 0.0000 (  9324 PWs)   bands (ev):

   -70.7643 -70.7375 -70.7375 -70.7281 -70.7275 -70.7009 -70.7009 -70.6911
   -40.8577 -40.8577 -40.8422 -40.8422 -37.0369 -36.9929 -36.9621 -36.9621
   -36.9147 -36.8603 -36.8603 -36.7833 -36.7833 -36.7719 -36.7719 -36.7638
   -36.7548 -36.7548 -36.7503 -36.6889 -36.6889 -36.6879 -36.6741 -36.6741
   -36.6665 -36.6427 -36.6427 -36.6197 -17.2013 -17.1850 -17.1850 -17.1837
   -17.1038 -17.1038 -17.0589 -17.0588 -16.9839 -16.9839 -16.9765 -16.9607
    10.8893  11.6288  11.6288  12.3789  12.4123  12.6360  12.6360  12.7370
    12.7370  13.0905  13.7864  13.7864  13.8602  13.8602  13.9745  13.9745
    13.9776  13.9820  14.0209  14.0209  14.1104  14.2154  14.2607  14.2607
    14.5193  14.5193  14.5304  14.5889  14.5889  14.8893  14.8893  14.9466
    14.9818  15.0620  15.6658  15.7064  15.7064  15.7487  15.7487  16.0405
    16.5562  16.5562  16.5761  16.5761  16.7934  16.7934  16.9473  16.9473
    16.9725  17.1417  17.3155  17.3871  17.3871  17.4046  17.7737  17.7737
    17.8228  17.9686

          k = 0.3333 0.5774 0.1030 (  9297 PWs)   bands (ev):

   -70.7631 -70.7374 -70.7374 -70.7372 -70.7183 -70.7008 -70.7008 -70.6923
   -40.8577 -40.8577 -40.8422 -40.8422 -37.0349 -36.9984 -36.9622 -36.9622
   -36.9055 -36.8571 -36.8571 -36.7899 -36.7880 -36.7880 -36.7797 -36.7797
   -36.7454 -36.7454 -36.7276 -36.6883 -36.6864 -36.6864 -36.6736 -36.6736
   -36.6644 -36.6452 -36.6452 -36.6231 -17.2002 -17.1850 -17.1838 -17.1838
   -17.1075 -17.1075 -17.0554 -17.0554 -16.9848 -16.9848 -16.9753 -16.9617
    10.9399  11.6696  11.6696  12.0021  12.5177  12.5177  12.7915  12.8078
    12.8078  13.1245  13.7499  13.7499  13.8434  13.9110  13.9111  13.9299
    13.9637  13.9637  14.0230  14.0230  14.1504  14.1919  14.1971  14.1971
    14.4674  14.4674  14.5657  14.7261  14.7261  14.8856  14.8955  14.8955
    15.0774  15.1451  15.6200  15.6200  15.6364  15.8322  15.8322  15.9812
    16.3982  16.3982  16.6333  16.6333  16.8020  16.8020  16.9631  16.9957
    16.9957  17.1710  17.2212  17.3763  17.3763  17.4140  17.7691  17.7692
    17.9631  17.9631

          k = 0.3333 0.5774 0.2061 (  9288 PWs)   bands (ev):

   -70.7594 -70.7460 -70.7374 -70.7374 -70.7094 -70.7008 -70.7008 -70.6960
   -40.8578 -40.8578 -40.8421 -40.8421 -37.0294 -37.0095 -36.9626 -36.9626
   -36.8834 -36.8490 -36.8490 -36.8227 -36.8045 -36.8045 -36.7811 -36.7811
   -36.7361 -36.7361 -36.7066 -36.6903 -36.6806 -36.6806 -36.6710 -36.6710
   -36.6575 -36.6524 -36.6524 -36.6325 -17.1971 -17.1883 -17.1812 -17.1812
   -17.1142 -17.1142 -17.0494 -17.0494 -16.9867 -16.9867 -16.9723 -16.9644
    11.0887  11.6378  11.7750  11.7750  12.3391  12.3391  12.8666  12.8666
    13.1573  13.2223  13.6320  13.7166  13.7166  13.7799  13.9060  13.9060
    13.9419  13.9419  14.0812  14.0812  14.1515  14.1557  14.1610  14.1610
    14.4207  14.4207  14.6461  14.7546  14.7546  14.8149  15.0512  15.0512
    15.2267  15.3360  15.5014  15.5014  15.5569  15.8230  15.9128  15.9128
    16.2286  16.2286  16.6384  16.6384  16.8137  16.8137  16.9586  17.0765
    17.0765  17.0794  17.2523  17.3375  17.3375  17.4028  17.7791  17.7791
    17.9217  17.9217

          k = 0.3333 0.5774-0.3091 (  9228 PWs)   bands (ev):

   -70.7535 -70.7535 -70.7374 -70.7374 -70.7018 -70.7018 -70.7008 -70.7008
   -40.8578 -40.8578 -40.8420 -40.8420 -37.0206 -37.0206 -36.9627 -36.9627
   -36.8545 -36.8545 -36.8426 -36.8426 -36.8141 -36.8141 -36.7811 -36.7811
   -36.7328 -36.7328 -36.6949 -36.6949 -36.6781 -36.6781 -36.6623 -36.6623
   -36.6623 -36.6623 -36.6454 -36.6454 -17.1928 -17.1928 -17.1798 -17.1798
   -17.1174 -17.1174 -17.0466 -17.0466 -16.9877 -16.9877 -16.9683 -16.9683
    11.3264  11.3264  11.8548  11.8548  12.2329  12.2329  12.8856  12.8856
    13.3466  13.3466  13.5636  13.5636  13.7035  13.7035  13.8844  13.8844
    13.9317  13.9317  14.1269  14.1269  14.1427  14.1427  14.1673  14.1673
    14.3927  14.3927  14.7322  14.7322  14.7343  14.7343  15.1954  15.1954
    15.3788  15.3788  15.4000  15.4000  15.6133  15.6133  15.9439  15.9439
    16.1602  16.1602  16.6364  16.6364  16.8185  16.8185  16.9913  16.9913
    17.1201  17.1201  17.3046  17.3046  17.3412  17.3412  17.7897  17.7897
    17.8943  17.8943

     the Fermi energy is    16.1694 ev

!    total energy              =   -3111.29383746 Ry
     estimated scf accuracy    <          7.6E-10 Ry
     smearing contrib. (-TS)   =       0.00010694 Ry
     internal energy E=F+TS    =   -3111.29394440 Ry

     The total energy is F=E-TS. E is the sum of the following terms:
     one-electron contribution =   -1208.28588129 Ry
     hartree contribution      =     698.24733443 Ry
     xc contribution           =    -349.41162697 Ry
     ewald contribution        =   -1642.60130586 Ry
     one-center paw contrib.   =    -609.24246471 Ry

     convergence has been achieved in  28 iterations

     negative rho (up, down):  3.721E-03 0.000E+00

     Forces acting on atoms (cartesian axes, Ry/au):

     atom    1 type  1   force =    -0.01344908    0.00776483    0.00000000
     atom    2 type  1   force =     0.01344908   -0.00776483    0.00000000
     atom    3 type  1   force =    -0.00000000    0.01552966    0.00000000
     atom    4 type  1   force =     0.01344908    0.00776483    0.00000000
     atom    5 type  1   force =     0.00000000   -0.01552966    0.00000000
     atom    6 type  1   force =    -0.01344908   -0.00776483   -0.00000000
     atom    7 type  1   force =    -0.00000000   -0.00000000    0.00000000
     atom    8 type  1   force =     0.00000000    0.00000000   -0.00000000
     atom    9 type  2   force =     0.00000000    0.00000000   -0.01101074
     atom   10 type  2   force =     0.00000000    0.00000000   -0.01101074
     atom   11 type  2   force =     0.00000000   -0.00000000    0.01101074
     atom   12 type  2   force =     0.00000000    0.00000000    0.01101074

     Total force =     0.043954     Total SCF correction =     0.000084


     Computing stress (Cartesian axis) and pressure


     negative rho (up, down):  3.721E-03 0.000E+00
          total   stress  (Ry/bohr**3)                   (kbar)     P=     -164.72
  -0.00120489  -0.00000000   0.00000000         -177.25       -0.00        0.00
  -0.00000000  -0.00120489   0.00000000           -0.00     -177.25        0.00
  -0.00000000  -0.00000000  -0.00094937           -0.00       -0.00     -139.66


     Writing all to output data dir ./FeAl.save/ :
     XML data file, charge density, pseudopotentials, collected wavefunctions

     init_run     :      4.61s CPU      4.72s WALL (       1 calls)
     electrons    :    251.16s CPU    255.38s WALL (       1 calls)
     forces       :      1.27s CPU      1.31s WALL (       1 calls)
     stress       :      5.68s CPU      5.76s WALL (       1 calls)

     Called by init_run:
     wfcinit      :      3.14s CPU      3.19s WALL (       1 calls)
     potinit      :      0.76s CPU      0.80s WALL (       1 calls)
     hinit0       :      0.38s CPU      0.38s WALL (       1 calls)

     Called by electrons:
     c_bands      :    205.29s CPU    206.86s WALL (      28 calls)
     sum_band     :     28.36s CPU     29.39s WALL (      28 calls)
     v_of_rho     :      1.55s CPU      1.63s WALL (      29 calls)
     newd         :      6.67s CPU      7.48s WALL (      29 calls)
     PAW_pot      :      9.57s CPU     10.17s WALL (      29 calls)
     mix_rho      :      0.17s CPU      0.18s WALL (      28 calls)

     Called by c_bands:
     init_us_2    :      1.30s CPU      1.31s WALL (    1652 calls)
     cegterg      :    198.21s CPU    199.73s WALL (     784 calls)

     Called by *egterg:
     cdiaghg      :     36.21s CPU     36.33s WALL (    3079 calls)
     h_psi        :    108.24s CPU    109.48s WALL (    3107 calls)
     s_psi        :      9.72s CPU      9.76s WALL (    3107 calls)
     g_psi        :      0.51s CPU      0.51s WALL (    2295 calls)

     Called by h_psi:
     h_psi:calbec :     13.68s CPU     13.75s WALL (    3107 calls)
     vloc_psi     :     84.09s CPU     85.21s WALL (    3107 calls)
     add_vuspsi   :     10.07s CPU     10.11s WALL (    3107 calls)

     General routines
     calbec       :     21.60s CPU     21.70s WALL (    4367 calls)
     fft          :      1.31s CPU      1.44s WALL (     400 calls)
     ffts         :      0.38s CPU      0.39s WALL (      57 calls)
     fftw         :     81.13s CPU     82.18s WALL (  517386 calls)
     interpolate  :      0.45s CPU      0.47s WALL (      29 calls)

     Parallel routines

     PWSCF        :    263.15s CPU    272.80s WALL


   This run was terminated on:   2:30:56  27Oct2025            

=------------------------------------------------------------------------------=
   JOB DONE.
=------------------------------------------------------------------------------=
Note: The following floating-point exceptions are signalling: IEEE_UNDERFLOW_FLAG IEEE_DENORMAL
Note: The following floating-point exceptions are signalling: IEEE_UNDERFLOW_FLAG IEEE_DENORMAL
Note: The following floating-point exceptions are signalling: IEEE_UNDERFLOW_FLAG IEEE_DENORMAL
Note: The following floating-point exceptions are signalling: IEEE_UNDERFLOW_FLAG IEEE_DENORMAL
Note: The following floating-point exceptions are signalling: IEEE_UNDERFLOW_FLAG IEEE_DENORMAL
Note: The following floating-point exceptions are signalling: IEEE_UNDERFLOW_FLAG IEEE_DENORMAL
Note: The following floating-point exceptions are signalling: IEEE_UNDERFLOW_FLAG IEEE_DENORMAL
Note: The following floating-point exceptions are signalling: IEEE_UNDERFLOW_FLAG IEEE_DENORMAL
