
     Program PWSCF v.7.4 starts on 27Oct2025 at  2:35:27 

     This program is part of the open-source Quantum ESPRESSO suite
     for quantum simulation of materials; please cite
         "P. Giannozzi et al., J. Phys.:Condens. Matter 21 395502 (2009);
         "P. Giannozzi et al., J. Phys.:Condens. Matter 29 465901 (2017);
         "P. Giannozzi et al., J. Chem. Phys. 152 154105 (2020);
          URL http://www.quantum-espresso.org", 
     in publications or presentations arising from this work. More details at
     http://www.quantum-espresso.org/quote

     Parallel version (MPI & OpenMP), running on       8 processor cores
     Number of MPI processes:                 8
     Threads/MPI process:                     1

     MPI processes distributed on     1 nodes
     231314 MiB available memory on the printing compute node when the environment starts

     Reading input from TiFe2_kmesh_convergence/TiFe2_k888.in

     Current dimensions of program PWSCF are:
     Max number of different atomic species (ntypx) = 10
     Max number of k-points (npk) =  40000
     Max angular momentum in pseudopotentials (lmaxx) =  4
     file Fe.pbe-spn-kjpaw_psl.0.2.1.UPF: wavefunction(s)  3D renormalized

     IMPORTANT: XC functional enforced from input :
     Exchange-correlation= PBE
                           (   1   4   3   4   0   0   0)
     Any further DFT definition will be discarded
     Please, verify this is what you really want

     Message from routine setup:
     using ibrav=0 with symmetry is DISCOURAGED, use correct ibrav instead

     R & G space division:  proc/nbgrp/npool/nimage =       8
     Subspace diagonalization in iterative solution of the eigenvalue problem:
     a serial algorithm will be used


     Parallelization info
     --------------------
     sticks:   dense  smooth     PW     G-vecs:    dense   smooth      PW
     Min         563     185     52                49655     9309    1392
     Max         564     186     53                49666     9318    1395
     Sum        4507    1483    421               397277    74505   11151

     Using Slab Decomposition



     bravais-lattice index     =            0
     lattice parameter (alat)  =       9.1568  a.u.
     unit-cell volume          =    1075.5644 (a.u.)^3
     number of atoms/cell      =           12
     number of atomic types    =            2
     number of electrons       =       176.00
     number of Kohn-Sham states=          106
     kinetic-energy cutoff     =      64.0000  Ry
     charge density cutoff     =     782.0000  Ry
     scf convergence threshold =      1.0E-08
     mixing beta               =       0.7000
     number of iterations used =            8  plain     mixing
     Exchange-correlation= PBE
                           (   1   4   3   4   0   0   0)

     celldm(1)=   9.156781  celldm(2)=   0.000000  celldm(3)=   0.000000
     celldm(4)=   0.000000  celldm(5)=   0.000000  celldm(6)=   0.000000

     crystal axes: (cart. coord. in units of alat)
               a(1) = (   1.000000   0.000000   0.000000 )  
               a(2) = (  -0.500000   0.866025   0.000000 )  
               a(3) = (   0.000000   0.000000   1.617623 )  

     reciprocal axes: (cart. coord. in units 2 pi/alat)
               b(1) = (  1.000000  0.577350 -0.000000 )  
               b(2) = (  0.000000  1.154701  0.000000 )  
               b(3) = (  0.000000 -0.000000  0.618191 )  


     PseudoPot. # 1 for Fe read from file:
     ./Fe.pbe-spn-kjpaw_psl.0.2.1.UPF
     MD5 check sum: e86618425769142926afa95317d90200
     Pseudo is Projector augmented-wave + core cor, Zval = 16.0
     Generated using "atomic" code by A. Dal Corso  v.5.0.99 svn rev. 10869
     Shape of augmentation charge: PSQ
     Using radial grid of 1191 points,  6 beta functions with: 
                l(1) =   0
                l(2) =   0
                l(3) =   1
                l(4) =   1
                l(5) =   2
                l(6) =   2
     Q(r) pseudized with 0 coefficients 


     PseudoPot. # 2 for Ti read from file:
     ./Ti_pbe_v1.4.uspp.F.UPF
     MD5 check sum: 88a00a6731bd790ddea75d31a80cb452
     Pseudo is Ultrasoft + core correction, Zval = 12.0
     Generated by new atomic code, or converted to UPF format
     Using radial grid of  851 points,  6 beta functions with: 
                l(1) =   0
                l(2) =   0
                l(3) =   1
                l(4) =   1
                l(5) =   2
                l(6) =   2
     Q(r) pseudized with  6 coefficients,  rinner =    1.000   1.000   1.000
                                                       1.000   1.000

     atomic species   valence    mass     pseudopotential
     Fe               16.00    55.84500     Fe( 1.00)
     Ti               12.00    47.86700     Ti( 1.00)

     24 Sym. Ops., with inversion, found (12 have fractional translation)



   Cartesian axes

     site n.     atom                  positions (alat units)
         1        Fe     tau(   1) = (   0.7465670   0.1463196   0.4044057  )
         2        Fe     tau(   2) = (  -0.2465670   0.7197058   1.2132171  )
         3        Fe     tau(   3) = (  -0.0000000   0.2926392   1.2132171  )
         4        Fe     tau(   4) = (   0.2534330   0.1463196   0.4044057  )
         5        Fe     tau(   5) = (   0.5000000   0.5733862   0.4044057  )
         6        Fe     tau(   6) = (   0.2465670   0.7197058   1.2132171  )
         7        Fe     tau(   7) = (   0.0000000   0.0000000   0.0000000  )
         8        Fe     tau(   8) = (   0.0000000   0.0000000   0.8088114  )
         9        Ti     tau(   9) = (   0.5000000   0.2886751   1.5200090  )
        10        Ti     tau(  10) = (  -0.0000000   0.5773503   0.7111976  )
        11        Ti     tau(  11) = (  -0.0000000   0.5773503   0.0976138  )
        12        Ti     tau(  12) = (   0.5000000   0.2886751   0.9064252  )

     number of k points=    50  Marzari-Vanderbilt smearing, width (Ry)=  0.0050
                       cart. coord. in units 2pi/alat
        k(    1) = (   0.0000000   0.0000000   0.0000000), wk =   0.0039062
        k(    2) = (   0.0000000   0.0000000   0.0772739), wk =   0.0078125
        k(    3) = (   0.0000000   0.0000000   0.1545478), wk =   0.0078125
        k(    4) = (   0.0000000   0.0000000   0.2318217), wk =   0.0078125
        k(    5) = (   0.0000000   0.0000000  -0.3090955), wk =   0.0039062
        k(    6) = (   0.0000000   0.1443376   0.0000000), wk =   0.0234375
        k(    7) = (   0.0000000   0.1443376   0.0772739), wk =   0.0468750
        k(    8) = (   0.0000000   0.1443376   0.1545478), wk =   0.0468750
        k(    9) = (   0.0000000   0.1443376   0.2318217), wk =   0.0468750
        k(   10) = (   0.0000000   0.1443376  -0.3090955), wk =   0.0234375
        k(   11) = (   0.0000000   0.2886751   0.0000000), wk =   0.0234375
        k(   12) = (   0.0000000   0.2886751   0.0772739), wk =   0.0468750
        k(   13) = (   0.0000000   0.2886751   0.1545478), wk =   0.0468750
        k(   14) = (   0.0000000   0.2886751   0.2318217), wk =   0.0468750
        k(   15) = (   0.0000000   0.2886751  -0.3090955), wk =   0.0234375
        k(   16) = (   0.0000000   0.4330127   0.0000000), wk =   0.0234375
        k(   17) = (   0.0000000   0.4330127   0.0772739), wk =   0.0468750
        k(   18) = (   0.0000000   0.4330127   0.1545478), wk =   0.0468750
        k(   19) = (   0.0000000   0.4330127   0.2318217), wk =   0.0468750
        k(   20) = (   0.0000000   0.4330127  -0.3090955), wk =   0.0234375
        k(   21) = (   0.0000000  -0.5773503   0.0000000), wk =   0.0117188
        k(   22) = (   0.0000000  -0.5773503   0.0772739), wk =   0.0234375
        k(   23) = (   0.0000000  -0.5773503   0.1545478), wk =   0.0234375
        k(   24) = (   0.0000000  -0.5773503   0.2318217), wk =   0.0234375
        k(   25) = (   0.0000000  -0.5773503  -0.3090955), wk =   0.0117188
        k(   26) = (   0.1250000   0.2165064   0.0000000), wk =   0.0234375
        k(   27) = (   0.1250000   0.2165064   0.0772739), wk =   0.0468750
        k(   28) = (   0.1250000   0.2165064   0.1545478), wk =   0.0468750
        k(   29) = (   0.1250000   0.2165064   0.2318217), wk =   0.0468750
        k(   30) = (   0.1250000   0.2165064  -0.3090955), wk =   0.0234375
        k(   31) = (   0.1250000   0.3608439   0.0000000), wk =   0.0468750
        k(   32) = (   0.1250000   0.3608439   0.0772739), wk =   0.0937500
        k(   33) = (   0.1250000   0.3608439   0.1545478), wk =   0.0937500
        k(   34) = (   0.1250000   0.3608439   0.2318217), wk =   0.0937500
        k(   35) = (   0.1250000   0.3608439  -0.3090955), wk =   0.0468750
        k(   36) = (   0.1250000   0.5051815   0.0000000), wk =   0.0468750
        k(   37) = (   0.1250000   0.5051815   0.0772739), wk =   0.0937500
        k(   38) = (   0.1250000   0.5051815   0.1545478), wk =   0.0937500
        k(   39) = (   0.1250000   0.5051815   0.2318217), wk =   0.0937500
        k(   40) = (   0.1250000   0.5051815  -0.3090955), wk =   0.0468750
        k(   41) = (   0.2500000   0.4330127   0.0000000), wk =   0.0234375
        k(   42) = (   0.2500000   0.4330127   0.0772739), wk =   0.0468750
        k(   43) = (   0.2500000   0.4330127   0.1545478), wk =   0.0468750
        k(   44) = (   0.2500000   0.4330127   0.2318217), wk =   0.0468750
        k(   45) = (   0.2500000   0.4330127  -0.3090955), wk =   0.0234375
        k(   46) = (   0.2500000   0.5773503   0.0000000), wk =   0.0234375
        k(   47) = (   0.2500000   0.5773503   0.0772739), wk =   0.0468750
        k(   48) = (   0.2500000   0.5773503   0.1545478), wk =   0.0468750
        k(   49) = (   0.2500000   0.5773503   0.2318217), wk =   0.0468750
        k(   50) = (   0.2500000   0.5773503  -0.3090955), wk =   0.0234375

     Dense  grid:   397277 G-vectors     FFT dimensions: (  81,  81, 144)

     Smooth grid:    74505 G-vectors     FFT dimensions: (  48,  48,  80)

     Estimated max dynamical RAM per process >     292.18 MB

     Estimated total dynamical RAM >       2.28 GB

     Check: negative core charge=   -0.000017

     Initial potential from superposition of free atoms

     starting charge     171.9963, renormalised to     176.0000

     negative rho (up, down):  6.092E-03 0.000E+00
     Starting wfcs are  144 randomized atomic wfcs
     Checking if some PAW data can be deallocated... 

     total cpu time spent up to now is        7.5 secs

     per-process dynamical memory:   242.9 Mb

     Self-consistent Calculation

     iteration #  1     ecut=    64.00 Ry     beta= 0.70
     Davidson diagonalization with overlap
     ethr =  1.00E-02,  avg # of iterations =  2.0

     negative rho (up, down):  2.167E-04 0.000E+00

     total cpu time spent up to now is       22.0 secs

     total energy              =   -3017.03057930 Ry
     estimated scf accuracy    <     116.50424422 Ry

     iteration #  2     ecut=    64.00 Ry     beta= 0.70
     Davidson diagonalization with overlap
     ethr =  1.00E-02,  avg # of iterations =  6.6

     total cpu time spent up to now is       51.5 secs

     total energy              =   -3075.89398816 Ry
     estimated scf accuracy    <     699.34629667 Ry

     iteration #  3     ecut=    64.00 Ry     beta= 0.70
     Davidson diagonalization with overlap
     ethr =  1.00E-02,  avg # of iterations =  5.0

     total cpu time spent up to now is       74.2 secs

     total energy              =   -3120.85934542 Ry
     estimated scf accuracy    <      91.83265266 Ry

     iteration #  4     ecut=    64.00 Ry     beta= 0.70
     Davidson diagonalization with overlap
     ethr =  1.00E-02,  avg # of iterations =  1.4

     negative rho (up, down):  3.913E-06 0.000E+00

     total cpu time spent up to now is       86.1 secs

     total energy              =   -3116.52870381 Ry
     estimated scf accuracy    <      54.19072947 Ry

     iteration #  5     ecut=    64.00 Ry     beta= 0.70
     Davidson diagonalization with overlap
     ethr =  1.00E-02,  avg # of iterations =  1.6

     negative rho (up, down):  1.068E-04 0.000E+00

     total cpu time spent up to now is       98.2 secs

     total energy              =   -3115.16496703 Ry
     estimated scf accuracy    <      42.04993152 Ry

     iteration #  6     ecut=    64.00 Ry     beta= 0.70
     Davidson diagonalization with overlap
     ethr =  1.00E-02,  avg # of iterations =  1.0

     negative rho (up, down):  4.344E-04 0.000E+00

     total cpu time spent up to now is      109.6 secs

     total energy              =   -3113.45734775 Ry
     estimated scf accuracy    <      26.36236592 Ry

     iteration #  7     ecut=    64.00 Ry     beta= 0.70
     Davidson diagonalization with overlap
     ethr =  1.00E-02,  avg # of iterations =  1.0

     negative rho (up, down):  1.141E-03 0.000E+00

     total cpu time spent up to now is      120.9 secs

     total energy              =   -3111.16343385 Ry
     estimated scf accuracy    <      17.58765926 Ry

     iteration #  8     ecut=    64.00 Ry     beta= 0.70
     Davidson diagonalization with overlap
     ethr =  9.99E-03,  avg # of iterations =  1.0

     negative rho (up, down):  1.444E-03 0.000E+00

     total cpu time spent up to now is      132.3 secs

     total energy              =   -3111.43603762 Ry
     estimated scf accuracy    <       5.40864867 Ry

     iteration #  9     ecut=    64.00 Ry     beta= 0.70
     Davidson diagonalization with overlap
     ethr =  3.07E-03,  avg # of iterations =  1.9

     negative rho (up, down):  2.414E-03 0.000E+00

     total cpu time spent up to now is      144.8 secs

     total energy              =   -3111.12585447 Ry
     estimated scf accuracy    <       4.23362265 Ry

     iteration # 10     ecut=    64.00 Ry     beta= 0.70
     Davidson diagonalization with overlap
     ethr =  2.41E-03,  avg # of iterations =  2.4

     negative rho (up, down):  5.243E-03 0.000E+00

     total cpu time spent up to now is      157.7 secs

     total energy              =   -3110.96244990 Ry
     estimated scf accuracy    <       1.01817125 Ry

     iteration # 11     ecut=    64.00 Ry     beta= 0.70
     Davidson diagonalization with overlap
     ethr =  5.79E-04,  avg # of iterations =  5.5

     negative rho (up, down):  4.119E-03 0.000E+00

     total cpu time spent up to now is      178.9 secs

     total energy              =   -3111.26946322 Ry
     estimated scf accuracy    <       5.80636660 Ry

     iteration # 12     ecut=    64.00 Ry     beta= 0.70
     Davidson diagonalization with overlap
     ethr =  5.79E-04,  avg # of iterations =  1.1

     negative rho (up, down):  1.931E-03 0.000E+00

     total cpu time spent up to now is      190.4 secs

     total energy              =   -3111.03421086 Ry
     estimated scf accuracy    <       1.46465803 Ry

     iteration # 13     ecut=    64.00 Ry     beta= 0.70
     Davidson diagonalization with overlap
     ethr =  5.79E-04,  avg # of iterations =  4.3

     negative rho (up, down):  3.028E-03 0.000E+00

     total cpu time spent up to now is      206.9 secs

     total energy              =   -3111.29300931 Ry
     estimated scf accuracy    <       1.87248023 Ry

     iteration # 14     ecut=    64.00 Ry     beta= 0.70
     Davidson diagonalization with overlap
     ethr =  5.79E-04,  avg # of iterations =  1.2

     negative rho (up, down):  3.473E-03 0.000E+00

     total cpu time spent up to now is      218.4 secs

     total energy              =   -3111.27383676 Ry
     estimated scf accuracy    <       0.57366179 Ry

     iteration # 15     ecut=    64.00 Ry     beta= 0.70
     Davidson diagonalization with overlap
     ethr =  3.26E-04,  avg # of iterations =  1.5

     negative rho (up, down):  3.455E-03 0.000E+00

     total cpu time spent up to now is      230.3 secs

     total energy              =   -3111.29434329 Ry
     estimated scf accuracy    <       0.04597836 Ry

     iteration # 16     ecut=    64.00 Ry     beta= 0.70
     Davidson diagonalization with overlap
     ethr =  2.61E-05,  avg # of iterations =  5.2

     negative rho (up, down):  3.516E-03 0.000E+00

     total cpu time spent up to now is      245.6 secs

     total energy              =   -3111.29541106 Ry
     estimated scf accuracy    <       0.05050410 Ry

     iteration # 17     ecut=    64.00 Ry     beta= 0.70
     Davidson diagonalization with overlap
     ethr =  2.61E-05,  avg # of iterations =  1.0

     negative rho (up, down):  3.647E-03 0.000E+00

     total cpu time spent up to now is      256.9 secs

     total energy              =   -3111.29275173 Ry
     estimated scf accuracy    <       0.03872087 Ry

     iteration # 18     ecut=    64.00 Ry     beta= 0.70
     Davidson diagonalization with overlap
     ethr =  2.20E-05,  avg # of iterations =  1.9

     negative rho (up, down):  3.706E-03 0.000E+00

     total cpu time spent up to now is      269.2 secs

     total energy              =   -3111.29338479 Ry
     estimated scf accuracy    <       0.00573274 Ry

     iteration # 19     ecut=    64.00 Ry     beta= 0.70
     Davidson diagonalization with overlap
     c_bands:  1 eigenvalues not converged
     ethr =  3.26E-06,  avg # of iterations =  7.0

     negative rho (up, down):  3.714E-03 0.000E+00

     total cpu time spent up to now is      286.8 secs

     total energy              =   -3111.29399470 Ry
     estimated scf accuracy    <       0.00001872 Ry

     iteration # 20     ecut=    64.00 Ry     beta= 0.70
     Davidson diagonalization with overlap
     ethr =  1.06E-08,  avg # of iterations =  9.0

     negative rho (up, down):  3.718E-03 0.000E+00

     total cpu time spent up to now is      325.4 secs

     total energy              =   -3111.29409487 Ry
     estimated scf accuracy    <       0.00003405 Ry

     iteration # 21     ecut=    64.00 Ry     beta= 0.70
     Davidson diagonalization with overlap
     ethr =  1.06E-08,  avg # of iterations =  1.0

     negative rho (up, down):  3.732E-03 0.000E+00

     total cpu time spent up to now is      336.7 secs

     total energy              =   -3111.29410415 Ry
     estimated scf accuracy    <       0.00004047 Ry

     iteration # 22     ecut=    64.00 Ry     beta= 0.70
     Davidson diagonalization with overlap
     ethr =  1.06E-08,  avg # of iterations =  4.3

     negative rho (up, down):  3.730E-03 0.000E+00

     total cpu time spent up to now is      352.9 secs

     total energy              =   -3111.29410520 Ry
     estimated scf accuracy    <       0.00029230 Ry

     iteration # 23     ecut=    64.00 Ry     beta= 0.70
     Davidson diagonalization with overlap
     ethr =  1.06E-08,  avg # of iterations =  1.0

     negative rho (up, down):  3.731E-03 0.000E+00

     total cpu time spent up to now is      364.2 secs

     total energy              =   -3111.29410601 Ry
     estimated scf accuracy    <       0.00021722 Ry

     iteration # 24     ecut=    64.00 Ry     beta= 0.70
     Davidson diagonalization with overlap
     ethr =  1.06E-08,  avg # of iterations =  1.0

     negative rho (up, down):  3.729E-03 0.000E+00

     total cpu time spent up to now is      375.5 secs

     total energy              =   -3111.29410828 Ry
     estimated scf accuracy    <       0.00022477 Ry

     iteration # 25     ecut=    64.00 Ry     beta= 0.70
     Davidson diagonalization with overlap
     ethr =  1.06E-08,  avg # of iterations =  1.0

     negative rho (up, down):  3.727E-03 0.000E+00

     total cpu time spent up to now is      386.8 secs

     total energy              =   -3111.29410148 Ry
     estimated scf accuracy    <       0.00027419 Ry

     iteration # 26     ecut=    64.00 Ry     beta= 0.70
     Davidson diagonalization with overlap
     ethr =  1.06E-08,  avg # of iterations =  1.0

     negative rho (up, down):  3.725E-03 0.000E+00

     total cpu time spent up to now is      398.1 secs

     total energy              =   -3111.29409426 Ry
     estimated scf accuracy    <       0.00016772 Ry

     iteration # 27     ecut=    64.00 Ry     beta= 0.70
     Davidson diagonalization with overlap
     ethr =  1.06E-08,  avg # of iterations =  1.8

     negative rho (up, down):  3.721E-03 0.000E+00

     total cpu time spent up to now is      410.6 secs

     total energy              =   -3111.29408751 Ry
     estimated scf accuracy    <       0.00007220 Ry

     iteration # 28     ecut=    64.00 Ry     beta= 0.70
     Davidson diagonalization with overlap
     ethr =  1.06E-08,  avg # of iterations =  3.8

     negative rho (up, down):  3.720E-03 0.000E+00

     total cpu time spent up to now is      425.6 secs

     total energy              =   -3111.29409176 Ry
     estimated scf accuracy    <       0.00000032 Ry

     iteration # 29     ecut=    64.00 Ry     beta= 0.70
     Davidson diagonalization with overlap
     ethr =  1.81E-10,  avg # of iterations =  5.6

     negative rho (up, down):  3.720E-03 0.000E+00

     total cpu time spent up to now is      446.1 secs

     total energy              =   -3111.29409202 Ry
     estimated scf accuracy    <       0.00000008 Ry

     iteration # 30     ecut=    64.00 Ry     beta= 0.70
     Davidson diagonalization with overlap
     ethr =  4.36E-11,  avg # of iterations =  2.9

     negative rho (up, down):  3.720E-03 0.000E+00

     total cpu time spent up to now is      461.5 secs

     total energy              =   -3111.29409203 Ry
     estimated scf accuracy    <       0.00000005 Ry

     iteration # 31     ecut=    64.00 Ry     beta= 0.70
     Davidson diagonalization with overlap
     ethr =  3.03E-11,  avg # of iterations =  1.4

     negative rho (up, down):  3.720E-03 0.000E+00

     total cpu time spent up to now is      473.2 secs

     total energy              =   -3111.29409203 Ry
     estimated scf accuracy    <       0.00000002 Ry

     iteration # 32     ecut=    64.00 Ry     beta= 0.70
     Davidson diagonalization with overlap
     ethr =  8.82E-12,  avg # of iterations =  2.6

     negative rho (up, down):  3.720E-03 0.000E+00

     total cpu time spent up to now is      486.4 secs

     End of self-consistent calculation

          k = 0.0000 0.0000 0.0000 (  9343 PWs)   bands (ev):

   -70.7871 -70.7647 -70.7285 -70.7058 -70.7016 -70.7016 -70.7016 -70.7016
   -40.8799 -40.8658 -40.8305 -40.8151 -37.1871 -37.1172 -37.0049 -36.8881
   -36.8881 -36.8684 -36.8684 -36.8509 -36.8509 -36.7899 -36.7822 -36.7378
   -36.7378 -36.7368 -36.7368 -36.6378 -36.6378 -36.6371 -36.6349 -36.6349
   -36.6284 -36.6284 -36.6161 -36.6159 -17.1716 -17.1716 -17.1576 -17.1576
   -17.1562 -17.1545 -17.0156 -17.0126 -16.9983 -16.9983 -16.9837 -16.9837
     8.6209  10.6521  11.4296  12.0190  12.5100  12.6082  12.7694  12.7694
    12.9910  12.9910  13.2019  13.2956  13.3872  13.3872  13.8291  13.8291
    13.9682  13.9682  14.2110  14.2970  14.2970  14.3231  14.3231  14.7801
    14.7801  14.9153  15.3974  15.3974  15.5166  15.5166  15.8304  15.9141
    15.9141  15.9141  15.9141  16.0634  16.0634  16.0735  16.0737  16.1350
    16.1622  16.1622  16.2360  16.2788  16.2788  16.7326  16.7326  16.7579
    16.9922  16.9922  17.2894  17.2894  17.4929  17.4929  17.5123  17.5126
    17.7886  17.7886

          k = 0.0000 0.0000 0.0773 (  9313 PWs)   bands (ev):

   -70.7866 -70.7660 -70.7271 -70.7064 -70.7016 -70.7016 -70.7016 -70.7016
   -40.8795 -40.8665 -40.8297 -40.8156 -37.1850 -37.1223 -36.9969 -36.8877
   -36.8877 -36.8710 -36.8710 -36.8462 -36.8462 -36.8190 -36.7560 -36.7560
   -36.7543 -36.7187 -36.7187 -36.6414 -36.6414 -36.6398 -36.6330 -36.6330
   -36.6287 -36.6287 -36.6160 -36.6160 -17.1711 -17.1711 -17.1581 -17.1581
   -17.1560 -17.1545 -17.0156 -17.0128 -16.9977 -16.9977 -16.9842 -16.9842
     8.6642  10.4292  11.6212  12.0194  12.4304  12.7373  12.7769  12.7769
    12.9807  12.9807  13.0972  13.3724  13.4024  13.4024  13.8177  13.8177
    13.9557  13.9557  14.2138  14.2138  14.2483  14.4251  14.4251  14.8130
    14.8130  14.9351  15.3545  15.3545  15.4605  15.4605  15.7555  15.9223
    15.9223  15.9368  15.9854  15.9854  16.0568  16.0568  16.0760  16.1326
    16.1628  16.1628  16.2420  16.2420  16.3278  16.7750  16.7750  16.8864
    16.9878  16.9878  17.2853  17.2853  17.4926  17.4926  17.5123  17.5126
    17.7793  17.7793

          k = 0.0000 0.0000 0.1545 (  9272 PWs)   bands (ev):

   -70.7847 -70.7693 -70.7238 -70.7082 -70.7016 -70.7016 -70.7015 -70.7015
   -40.8783 -40.8685 -40.8275 -40.8169 -37.1800 -37.1339 -36.9769 -36.8866
   -36.8866 -36.8754 -36.8754 -36.8530 -36.8363 -36.8363 -36.7745 -36.7745
   -36.7254 -36.7009 -36.7009 -36.6484 -36.6484 -36.6475 -36.6310 -36.6310
   -36.6287 -36.6287 -36.6158 -36.6158 -17.1697 -17.1697 -17.1598 -17.1598
   -17.1555 -17.1543 -17.0156 -17.0135 -16.9960 -16.9960 -16.9857 -16.9857
     8.7930  10.0336  11.8893  12.0204  12.4027  12.7986  12.7986  12.9301
    12.9530  12.9530  12.9549  13.4233  13.4455  13.4455  13.7685  13.7685
    13.9486  13.9486  14.1343  14.1343  14.3699  14.5593  14.5593  14.8919
    14.8919  14.9916  15.2448  15.2448  15.3552  15.3552  15.6024  15.6752
    15.9425  15.9425  16.0354  16.0354  16.0826  16.0851  16.0851  16.1259
    16.1679  16.1679  16.2180  16.2180  16.4826  16.8405  16.8405  16.9755
    16.9755  17.1931  17.2680  17.2680  17.5122  17.5122  17.5124  17.5126
    17.7510  17.7510

          k = 0.0000 0.0000 0.2318 (  9296 PWs)   bands (ev):

   -70.7818 -70.7736 -70.7194 -70.7112 -70.7016 -70.7016 -70.7015 -70.7015
   -40.8764 -40.8712 -40.8247 -40.8190 -37.1719 -37.1479 -36.9504 -36.8868
   -36.8850 -36.8850 -36.8795 -36.8795 -36.8238 -36.8238 -36.7924 -36.7924
   -36.6997 -36.6846 -36.6846 -36.6604 -36.6580 -36.6580 -36.6300 -36.6300
   -36.6290 -36.6290 -36.6160 -36.6158 -17.1675 -17.1675 -17.1621 -17.1621
   -17.1549 -17.1542 -17.0155 -17.0143 -16.9935 -16.9935 -16.9879 -16.9879
     9.0035   9.6388  12.0067  12.0222  12.5088  12.8148  12.8318  12.8318
    12.9146  12.9146  13.1248  13.3949  13.5112  13.5112  13.6849  13.6849
    13.9703  13.9703  14.0673  14.0673  14.5900  14.7115  14.7115  14.9589
    14.9589  15.0474  15.1273  15.1273  15.2493  15.2493  15.3833  15.4456
    15.9703  15.9703  16.0210  16.0210  16.0768  16.0768  16.0925  16.1029
    16.1029  16.1159  16.3961  16.3961  16.6983  16.7635  16.7635  17.0496
    17.0496  17.2261  17.2261  17.3516  17.5124  17.5676  17.5676  17.6297
    17.7031  17.7031

          k = 0.0000 0.0000-0.3091 (  9374 PWs)   bands (ev):

   -70.7780 -70.7780 -70.7151 -70.7151 -70.7016 -70.7016 -70.7016 -70.7016
   -40.8740 -40.8740 -40.8217 -40.8217 -37.1612 -37.1612 -36.9199 -36.9199
   -36.8829 -36.8829 -36.8829 -36.8829 -36.8092 -36.8092 -36.8092 -36.8092
   -36.6780 -36.6780 -36.6704 -36.6704 -36.6704 -36.6704 -36.6296 -36.6296
   -36.6296 -36.6296 -36.6160 -36.6160 -17.1648 -17.1648 -17.1648 -17.1648
   -17.1544 -17.1544 -17.0151 -17.0151 -16.9907 -16.9907 -16.9907 -16.9907
     9.2891   9.2891  12.0236  12.0236  12.6682  12.6682  12.8722  12.8722
    12.8722  12.8722  13.2888  13.2888  13.5937  13.5937  13.5937  13.5937
    14.0120  14.0120  14.0120  14.0120  14.8691  14.8691  14.8691  14.8691
    14.8810  14.8810  15.1538  15.1538  15.1538  15.1538  15.3219  15.3219
    16.0008  16.0008  16.0008  16.0008  16.0699  16.0699  16.0699  16.0699
    16.1041  16.1041  16.5928  16.5928  16.5928  16.5928  16.9930  16.9930
    17.1509  17.1509  17.1509  17.1509  17.5125  17.5125  17.6385  17.6385
    17.6385  17.6385

          k = 0.0000 0.1443 0.0000 (  9296 PWs)   bands (ev):

   -70.7852 -70.7625 -70.7285 -70.7114 -70.7037 -70.7016 -70.7015 -70.6979
   -40.8784 -40.8641 -40.8322 -40.8168 -37.1745 -37.1048 -37.0031 -36.8873
   -36.8801 -36.8713 -36.8594 -36.8529 -36.8507 -36.7856 -36.7822 -36.7410
   -36.7381 -36.7377 -36.7367 -36.6472 -36.6419 -36.6414 -36.6368 -36.6349
   -36.6340 -36.6327 -36.6204 -36.6198 -17.1821 -17.1742 -17.1599 -17.1567
   -17.1551 -17.1409 -17.0258 -17.0102 -17.0013 -16.9958 -16.9812 -16.9784
     8.7716  10.7681  11.5315  12.0861  12.5343  12.6098  12.7566  12.7922
    12.9091  13.0865  13.1861  13.3817  13.4083  13.4177  13.8046  13.8597
    13.9716  14.0274  14.2619  14.2704  14.2981  14.3230  14.3399  14.6946
    14.7431  14.7908  15.1674  15.3275  15.3346  15.3355  15.6254  15.7141
    15.8527  15.8704  15.9111  15.9726  15.9916  16.0432  16.1035  16.2226
    16.2242  16.2560  16.3098  16.4104  16.4431  16.5117  16.8195  16.9053
    16.9091  16.9834  17.2974  17.3652  17.4560  17.4565  17.5096  17.5398
    17.5748  17.8557

          k = 0.0000 0.1443 0.0773 (  9318 PWs)   bands (ev):

   -70.7845 -70.7639 -70.7272 -70.7117 -70.7036 -70.7016 -70.7016 -70.6983
   -40.8780 -40.8649 -40.8314 -40.8173 -37.1729 -37.1101 -36.9955 -36.8870
   -36.8799 -36.8746 -36.8633 -36.8485 -36.8451 -36.8154 -36.7587 -36.7559
   -36.7535 -36.7214 -36.7190 -36.6486 -36.6443 -36.6424 -36.6373 -36.6354
   -36.6344 -36.6326 -36.6204 -36.6198 -17.1814 -17.1737 -17.1605 -17.1593
   -17.1528 -17.1412 -17.0255 -17.0116 -16.9997 -16.9952 -16.9817 -16.9791
     8.8144  10.5502  11.7176  12.0865  12.4589  12.6806  12.8017  12.8036
    12.9005  13.0719  13.1524  13.3691  13.4344  13.4475  13.8004  13.8513
    13.9525  14.0091  14.1837  14.2347  14.2887  14.4109  14.4472  14.7298
    14.7740  14.8102  15.1552  15.2826  15.3057  15.3168  15.6623  15.6646
    15.7758  15.8551  15.9119  15.9632  16.0173  16.0335  16.1062  16.1918
    16.2228  16.2408  16.3332  16.3774  16.4139  16.6420  16.8282  16.9243
    16.9439  16.9965  17.2944  17.3788  17.4246  17.4870  17.5167  17.5376
    17.5688  17.8433

          k = 0.0000 0.1443 0.1545 (  9313 PWs)   bands (ev):

   -70.7827 -70.7673 -70.7241 -70.7126 -70.7033 -70.7016 -70.7016 -70.6992
   -40.8768 -40.8670 -40.8292 -40.8186 -37.1679 -37.1222 -36.9758 -36.8859
   -36.8814 -36.8791 -36.8683 -36.8463 -36.8385 -36.8349 -36.7769 -36.7742
   -36.7260 -36.7043 -36.7015 -36.6528 -36.6504 -36.6475 -36.6382 -36.6372
   -36.6336 -36.6326 -36.6203 -36.6199 -17.1792 -17.1722 -17.1631 -17.1621
   -17.1502 -17.1420 -17.0245 -17.0145 -16.9961 -16.9935 -16.9832 -16.9810
     8.9414  10.1624  11.9784  12.0879  12.4261  12.7269  12.8294  12.8300
    12.9864  13.0334  13.0707  13.3905  13.4756  13.4806  13.7612  13.8094
    13.9397  13.9884  14.1099  14.1557  14.3781  14.5583  14.5796  14.8150
    14.8438  14.8626  15.1136  15.2039  15.2319  15.2505  15.5183  15.5934
    15.7419  15.8533  15.9158  15.9522  15.9698  16.0851  16.1048  16.1390
    16.1802  16.2480  16.3100  16.4324  16.4529  16.7682  16.8046  16.8948
    16.9932  17.1405  17.2803  17.4168  17.4458  17.4843  17.5428  17.5472
    17.5517  17.8070

          k = 0.0000 0.1443 0.2318 (  9318 PWs)   bands (ev):

   -70.7797 -70.7716 -70.7204 -70.7143 -70.7027 -70.7016 -70.7016 -70.7006
   -40.8749 -40.8697 -40.8263 -40.8206 -37.1600 -37.1362 -36.9500 -36.8956
   -36.8832 -36.8776 -36.8724 -36.8697 -36.8259 -36.8224 -36.7946 -36.7918
   -36.7018 -36.6900 -36.6854 -36.6597 -36.6594 -36.6577 -36.6386 -36.6380
   -36.6331 -36.6326 -36.6202 -36.6200 -17.1759 -17.1700 -17.1674 -17.1646
   -17.1476 -17.1433 -17.0228 -17.0176 -16.9920 -16.9910 -16.9855 -16.9840
     9.1490   9.7745  12.0849  12.0917  12.5194  12.7268  12.8245  12.8720
    12.9746  12.9813  13.1504  13.3838  13.5069  13.5495  13.6769  13.7280
    13.9654  14.0010  14.0533  14.0906  14.5479  14.7193  14.7218  14.8862
    14.8985  14.9283  15.0377  15.1249  15.1315  15.1737  15.3616  15.3923
    15.8128  15.8661  15.9154  15.9292  15.9346  16.0216  16.1030  16.1200
    16.1840  16.2350  16.3863  16.5323  16.5533  16.7316  16.7435  16.8018
    17.0882  17.2442  17.2901  17.4523  17.4584  17.4644  17.5239  17.5461
    17.5999  17.7495

          k = 0.0000 0.1443-0.3091 (  9324 PWs)   bands (ev):

   -70.7759 -70.7759 -70.7169 -70.7169 -70.7018 -70.7018 -70.7016 -70.7016
   -40.8724 -40.8724 -40.8233 -40.8233 -37.1492 -37.1492 -36.9215 -36.9215
   -36.8792 -36.8792 -36.8754 -36.8754 -36.8112 -36.8112 -36.8079 -36.8079
   -36.6856 -36.6856 -36.6713 -36.6713 -36.6656 -36.6656 -36.6384 -36.6384
   -36.6329 -36.6329 -36.6201 -36.6201 -17.1718 -17.1718 -17.1673 -17.1673
   -17.1452 -17.1452 -17.0204 -17.0204 -16.9882 -16.9882 -16.9878 -16.9878
     9.4303   9.4303  12.0952  12.0952  12.6471  12.6471  12.8855  12.8855
    12.9248  12.9248  13.2931  13.2931  13.5835  13.5835  13.6351  13.6351
    14.0061  14.0061  14.0381  14.0381  14.7594  14.7594  14.8511  14.8511
    14.8956  14.8956  15.0413  15.0413  15.1162  15.1162  15.2941  15.2941
    15.8680  15.8680  15.8945  15.8945  15.9658  15.9658  16.1013  16.1013
    16.2094  16.2094  16.5531  16.5531  16.6323  16.6323  16.7075  16.7075
    17.1786  17.1786  17.3905  17.3905  17.4791  17.4791  17.4923  17.4923
    17.6764  17.6764

          k = 0.0000 0.2887 0.0000 (  9300 PWs)   bands (ev):

   -70.7797 -70.7568 -70.7285 -70.7203 -70.7094 -70.7016 -70.7015 -70.6946
   -40.8740 -40.8594 -40.8370 -40.8215 -37.1411 -37.0721 -36.9996 -36.8899
   -36.8766 -36.8584 -36.8578 -36.8507 -36.8349 -36.7826 -36.7772 -36.7504
   -36.7397 -36.7384 -36.7369 -36.6801 -36.6666 -36.6614 -36.6512 -36.6412
   -36.6348 -36.6275 -36.6255 -36.6228 -17.1917 -17.1802 -17.1653 -17.1626
   -17.1486 -17.1189 -17.0450 -17.0091 -17.0039 -16.9902 -16.9754 -16.9720
     9.2092  11.0899  11.8112  12.1988  12.5378  12.5820  12.6039  12.8696
    12.9658  13.0779  13.3358  13.4753  13.5082  13.6005  13.7203  13.9409
    13.9489  14.1848  14.1913  14.2745  14.3336  14.3623  14.4378  14.5080
    14.5310  14.6365  14.7303  14.9989  15.0010  15.1183  15.2730  15.2781
    15.5094  15.6892  15.7572  15.9360  16.1004  16.1099  16.1204  16.1489
    16.1960  16.2743  16.4764  16.5339  16.6245  16.6372  16.7364  16.8538
    16.9578  17.0529  17.1053  17.2346  17.3175  17.5727  17.6042  17.6777
    17.6824  18.0797

          k = 0.0000 0.2887 0.0773 (  9295 PWs)   bands (ev):

   -70.7790 -70.7582 -70.7276 -70.7204 -70.7089 -70.7016 -70.7015 -70.6951
   -40.8736 -40.8603 -40.8361 -40.8219 -37.1395 -37.0780 -36.9914 -36.8911
   -36.8786 -36.8584 -36.8533 -36.8517 -36.8321 -36.8070 -36.7657 -36.7552
   -36.7519 -36.7274 -36.7203 -36.6799 -36.6660 -36.6621 -36.6511 -36.6429
   -36.6364 -36.6294 -36.6251 -36.6228 -17.1907 -17.1797 -17.1659 -17.1640
   -17.1473 -17.1202 -17.0438 -17.0126 -17.0004 -16.9895 -16.9759 -16.9729
     9.2501  10.8906  11.9712  12.2059  12.4843  12.5769  12.6678  12.8833
    12.9762  13.0937  13.3062  13.4433  13.5318  13.6073  13.7311  13.9334
    13.9358  14.1272  14.1624  14.2771  14.3394  14.3629  14.5087  14.5393
    14.5460  14.6636  14.7753  14.9798  14.9827  15.1325  15.2606  15.2981
    15.4864  15.6845  15.7573  15.8727  16.0485  16.0568  16.1318  16.1675
    16.1945  16.2910  16.4539  16.4856  16.6233  16.6716  16.7697  16.8421
    16.9907  17.0749  17.1409  17.2602  17.2955  17.5342  17.5871  17.6165
    17.8217  18.0637

          k = 0.0000 0.2887 0.1545 (  9296 PWs)   bands (ev):

   -70.7772 -70.7617 -70.7255 -70.7207 -70.7074 -70.7016 -70.7015 -70.6967
   -40.8725 -40.8626 -40.8337 -40.8232 -37.1350 -37.0909 -36.9726 -36.8964
   -36.8796 -36.8580 -36.8536 -36.8435 -36.8333 -36.8251 -36.7825 -36.7722
   -36.7303 -36.7133 -36.7038 -36.6788 -36.6642 -36.6639 -36.6505 -36.6477
   -36.6401 -36.6350 -36.6243 -36.6228 -17.1878 -17.1782 -17.1677 -17.1676
   -17.1440 -17.1236 -17.0404 -17.0179 -16.9951 -16.9878 -16.9774 -16.9753
     9.3716  10.5292  12.1508  12.2543  12.4456  12.6018  12.7277  12.9231
    13.0046  13.1219  13.2374  13.3827  13.5869  13.6136  13.7402  13.9085
    13.9169  14.0710  14.1102  14.2105  14.3269  14.4719  14.6005  14.6066
    14.6248  14.7159  14.8327  14.9434  14.9688  15.1369  15.2242  15.3672
    15.4101  15.6845  15.7554  15.7913  15.9667  15.9703  16.0715  16.0972
    16.2054  16.3184  16.3948  16.5304  16.6173  16.6999  16.7514  16.8495
    17.0368  17.1229  17.2197  17.2657  17.3044  17.4850  17.5944  17.6648
    17.8751  18.0151

          k = 0.0000 0.2887 0.2318 (  9318 PWs)   bands (ev):

   -70.7743 -70.7661 -70.7236 -70.7212 -70.7051 -70.7016 -70.7016 -70.6992
   -40.8707 -40.8654 -40.8307 -40.8251 -37.1275 -37.1048 -36.9495 -36.9080
   -36.8768 -36.8575 -36.8554 -36.8553 -36.8307 -36.8152 -36.7998 -36.7883
   -36.7134 -36.7044 -36.6893 -36.6747 -36.6690 -36.6602 -36.6551 -36.6494
   -36.6444 -36.6432 -36.6237 -36.6231 -17.1835 -17.1759 -17.1728 -17.1701
   -17.1393 -17.1285 -17.0354 -17.0237 -16.9894 -16.9854 -16.9797 -16.9791
     9.5697  10.1639  12.1914  12.2607  12.5328  12.6206  12.7989  12.9831
    12.9854  13.1521  13.1782  13.3250  13.6226  13.6612  13.7045  13.8401
    13.9489  14.0322  14.0936  14.1565  14.3674  14.5408  14.6584  14.6803
    14.7137  14.7418  14.8493  14.9225  15.0019  15.1158  15.1857  15.2993
    15.4778  15.7110  15.7268  15.7770  15.8749  15.8896  15.9610  15.9673
    16.2517  16.3566  16.3759  16.5753  16.6416  16.6714  16.7000  16.8213
    17.0792  17.1791  17.1824  17.3095  17.3669  17.5522  17.5554  17.7495
    17.8151  17.9388

          k = 0.0000 0.2887-0.3091 (  9326 PWs)   bands (ev):

   -70.7705 -70.7705 -70.7221 -70.7221 -70.7021 -70.7021 -70.7016 -70.7016
   -40.8682 -40.8682 -40.8277 -40.8277 -37.1173 -37.1173 -36.9266 -36.9266
   -36.8694 -36.8694 -36.8566 -36.8566 -36.8160 -36.8160 -36.8028 -36.8028
   -36.7045 -36.7045 -36.6774 -36.6774 -36.6662 -36.6662 -36.6519 -36.6519
   -36.6476 -36.6476 -36.6234 -36.6234 -17.1783 -17.1783 -17.1730 -17.1730
   -17.1340 -17.1340 -17.0297 -17.0297 -16.9840 -16.9840 -16.9825 -16.9825
     9.8375   9.8375  12.2225  12.2225  12.6037  12.6037  12.8976  12.8976
    13.0645  13.0645  13.2577  13.2577  13.6533  13.6533  13.7492  13.7492
    13.9948  13.9948  14.1149  14.1149  14.4690  14.4690  14.7252  14.7252
    14.7262  14.7262  14.8864  14.8864  15.0666  15.0666  15.2058  15.2058
    15.6132  15.6132  15.7672  15.7672  15.8594  15.8594  15.8911  15.8911
    16.3053  16.3053  16.4756  16.4756  16.6772  16.6772  16.7375  16.7375
    17.1263  17.1263  17.2524  17.2524  17.4740  17.4740  17.6851  17.6851
    17.8463  17.8463

          k = 0.0000 0.4330 0.0000 (  9286 PWs)   bands (ev):

   -70.7726 -70.7492 -70.7292 -70.7285 -70.7171 -70.7016 -70.7015 -70.6927
   -40.8680 -40.8530 -40.8435 -40.8279 -37.0998 -37.0315 -36.9958 -36.9108
   -36.8682 -36.8617 -36.8507 -36.8304 -36.7997 -36.7830 -36.7727 -36.7553
   -36.7446 -36.7398 -36.7371 -36.7247 -36.6953 -36.6880 -36.6771 -36.6463
   -36.6347 -36.6270 -36.6234 -36.6217 -17.1954 -17.1859 -17.1704 -17.1695
   -17.1407 -17.1006 -17.0626 -17.0180 -16.9968 -16.9848 -16.9700 -16.9696
     9.8801  11.4462  11.8789  12.1736  12.3576  12.6003  12.7071  12.9703
    12.9736  13.1281  13.6098  13.6100  13.6351  13.6778  13.7943  13.9293
    14.0322  14.1292  14.1717  14.2780  14.3415  14.3654  14.3975  14.4402
    14.4967  14.5179  14.5763  14.6640  14.7107  14.7743  14.8368  14.8543
    15.0134  15.2803  15.7148  16.0256  16.0753  16.1393  16.1604  16.2229
    16.2385  16.3124  16.3379  16.6712  16.7217  16.7528  16.7807  16.7853
    16.8421  17.0283  17.0876  17.3596  17.4489  17.6407  17.6425  17.6499
    17.7504  18.2812

          k = 0.0000 0.4330 0.0773 (  9302 PWs)   bands (ev):

   -70.7720 -70.7507 -70.7292 -70.7286 -70.7155 -70.7016 -70.7015 -70.6934
   -40.8677 -40.8544 -40.8421 -40.8283 -37.0984 -37.0395 -36.9866 -36.9121
   -36.8703 -36.8565 -36.8497 -36.8310 -36.7992 -36.7979 -36.7744 -36.7532
   -36.7528 -36.7392 -36.7246 -36.7197 -36.6956 -36.6849 -36.6762 -36.6482
   -36.6370 -36.6264 -36.6238 -36.6234 -17.1943 -17.1854 -17.1710 -17.1701
   -17.1402 -17.1038 -17.0594 -17.0193 -16.9955 -16.9842 -16.9705 -16.9705
     9.9174  11.3296  11.8190  12.3119  12.3508  12.6185  12.7127  12.9359
    12.9882  13.1561  13.5409  13.5741  13.6874  13.7179  13.8025  13.9254
    14.0245  14.1288  14.1347  14.2700  14.3030  14.3316  14.3822  14.4477
    14.5237  14.5587  14.6111  14.6646  14.7406  14.8250  14.8291  14.8645
    15.0244  15.2955  15.7153  15.9664  16.0419  16.1101  16.1436  16.1489
    16.2313  16.3071  16.4159  16.6996  16.7108  16.7210  16.7617  16.7856
    16.8136  17.1089  17.1577  17.3266  17.4195  17.4806  17.6658  17.7605
    17.8527  18.2503

          k = 0.0000 0.4330 0.1545 (  9289 PWs)   bands (ev):

   -70.7701 -70.7543 -70.7292 -70.7289 -70.7116 -70.7016 -70.7015 -70.6952
   -40.8667 -40.8571 -40.8393 -40.8293 -37.0944 -37.0532 -36.9690 -36.9160
   -36.8705 -36.8469 -36.8468 -36.8324 -36.8192 -36.7970 -36.7885 -36.7661
   -36.7453 -36.7362 -36.7129 -36.7057 -36.6962 -36.6763 -36.6728 -36.6536
   -36.6424 -36.6297 -36.6253 -36.6234 -17.1913 -17.1838 -17.1728 -17.1722
   -17.1383 -17.1111 -17.0522 -17.0229 -16.9921 -16.9825 -16.9731 -16.9720
    10.0280  11.0501  11.8268  12.2362  12.5678  12.6609  12.7278  12.8859
    13.0404  13.1896  13.4664  13.4704  13.7693  13.7747  13.8218  13.9033
    14.0000  14.0838  14.1122  14.2393  14.2679  14.3296  14.3476  14.4643
    14.5377  14.5740  14.6391  14.7172  14.8010  14.8170  14.9056  14.9121
    15.0958  15.3536  15.7154  15.8505  15.9387  16.0224  16.0293  16.0960
    16.2341  16.3093  16.4711  16.6263  16.7122  16.7362  16.7636  16.8221
    16.8353  17.1500  17.2382  17.3311  17.3576  17.4368  17.7036  17.7958
    18.0450  18.1616

          k = 0.0000 0.4330 0.2318 (  9302 PWs)   bands (ev):

   -70.7672 -70.7588 -70.7292 -70.7290 -70.7069 -70.7016 -70.7016 -70.6983
   -40.8650 -40.8601 -40.8362 -40.8311 -37.0877 -37.0668 -36.9508 -36.9234
   -36.8661 -36.8430 -36.8410 -36.8351 -36.8330 -36.8045 -36.7930 -36.7778
   -36.7402 -36.7362 -36.7048 -36.6975 -36.6894 -36.6666 -36.6650 -36.6616
   -36.6498 -36.6391 -36.6245 -36.6236 -17.1867 -17.1814 -17.1761 -17.1754
   -17.1341 -17.1196 -17.0438 -17.0285 -16.9873 -16.9800 -16.9771 -16.9744
    10.2076  10.7371  11.8980  12.1215  12.7053  12.7149  12.7531  12.8512
    13.1230  13.2289  13.3499  13.3791  13.8174  13.8271  13.8631  13.8903
    13.9536  14.0285  14.1235  14.2374  14.2406  14.2821  14.3856  14.4570
    14.5426  14.5640  14.6455  14.7623  14.7971  14.8888  14.9159  14.9607
    15.2793  15.4711  15.6755  15.7532  15.8189  15.9060  15.9212  15.9819
    16.2705  16.3105  16.5140  16.6147  16.6860  16.6924  16.7742  16.8361
    16.9215  17.1364  17.1862  17.2904  17.4682  17.5571  17.6702  17.8895
    17.9574  18.0977

          k = 0.0000 0.4330-0.3091 (  9300 PWs)   bands (ev):

   -70.7633 -70.7633 -70.7291 -70.7291 -70.7023 -70.7023 -70.7016 -70.7016
   -40.8628 -40.8628 -40.8334 -40.8334 -37.0784 -37.0784 -36.9350 -36.9350
   -36.8560 -36.8560 -36.8388 -36.8388 -36.8199 -36.8199 -36.7868 -36.7868
   -36.7374 -36.7374 -36.7000 -36.7000 -36.6747 -36.6747 -36.6583 -36.6583
   -36.6510 -36.6510 -36.6239 -36.6239 -17.1813 -17.1813 -17.1784 -17.1784
   -17.1276 -17.1276 -17.0357 -17.0357 -16.9820 -16.9820 -16.9771 -16.9771
    10.4483  10.4483  12.0021  12.0021  12.7330  12.7330  12.8123  12.8123
    13.2295  13.2295  13.2944  13.2944  13.8338  13.8338  13.8912  13.8912
    13.9692  13.9692  14.1814  14.1814  14.2468  14.2468  14.4302  14.4302
    14.5510  14.5510  14.6936  14.6936  14.8696  14.8696  14.9539  14.9539
    15.5027  15.5027  15.6240  15.6240  15.8086  15.8086  15.9130  15.9130
    16.2989  16.2989  16.5877  16.5877  16.6462  16.6462  16.8190  16.8190
    17.0261  17.0261  17.2319  17.2319  17.5834  17.5834  17.7536  17.7536
    17.9990  17.9990

          k = 0.0000-0.5774 0.0000 (  9312 PWs)   bands (ev):

   -70.7689 -70.7446 -70.7336 -70.7285 -70.7216 -70.7016 -70.7016 -70.6921
   -40.8642 -40.8491 -40.8474 -40.8319 -37.0787 -37.0089 -36.9940 -36.9287
   -36.8631 -36.8588 -36.8507 -36.8152 -36.7829 -36.7741 -36.7734 -36.7588
   -36.7547 -36.7418 -36.7391 -36.7371 -36.7210 -36.6960 -36.6911 -36.6487
   -36.6347 -36.6276 -36.6235 -36.6196 -17.1958 -17.1882 -17.1730 -17.1724
   -17.1368 -17.0929 -17.0702 -17.0223 -16.9934 -16.9827 -16.9694 -16.9678
    10.4872  11.0676  12.0037  12.1880  12.3592  12.6489  12.8085  12.8838
    13.0191  13.1989  13.6211  13.6476  13.7066  13.9014  13.9608  13.9671
    13.9873  14.0270  14.1183  14.2862  14.3367  14.3909  14.3970  14.4066
    14.4462  14.4839  14.5033  14.5431  14.5488  14.5620  14.6894  14.7436
    14.7751  15.0625  15.7520  16.0546  16.0702  16.1211  16.1473  16.2202
    16.2515  16.2960  16.3057  16.5654  16.6466  16.8314  16.9117  16.9640
    17.0336  17.0617  17.1305  17.1566  17.4158  17.5404  17.5650  17.6734
    17.8556  18.2071

          k = 0.0000-0.5774 0.0773 (  9288 PWs)   bands (ev):

   -70.7682 -70.7460 -70.7336 -70.7301 -70.7185 -70.7016 -70.7015 -70.6928
   -40.8640 -40.8516 -40.8449 -40.8322 -37.0774 -37.0198 -36.9824 -36.9291
   -36.8654 -36.8533 -36.8493 -36.8163 -36.7924 -36.7792 -36.7737 -36.7586
   -36.7559 -36.7488 -36.7315 -36.7282 -36.7211 -36.6909 -36.6883 -36.6505
   -36.6370 -36.6267 -36.6234 -36.6215 -17.1948 -17.1877 -17.1732 -17.1730
   -17.1367 -17.0981 -17.0651 -17.0230 -16.9926 -16.9821 -16.9703 -16.9684
    10.5190  11.0919  11.8435  12.1310  12.4957  12.6563  12.8014  12.8819
    13.0389  13.2012  13.6011  13.6711  13.6799  13.9294  13.9592  13.9828
    13.9860  14.0157  14.0914  14.2639  14.2871  14.3667  14.4036  14.4171
    14.4352  14.4450  14.4895  14.5343  14.6366  14.6431  14.6804  14.7540
    14.8330  15.1000  15.7526  16.0134  16.0307  16.1235  16.1389  16.1451
    16.2120  16.2218  16.4506  16.6096  16.6730  16.7776  16.8155  16.8805
    17.0429  17.1258  17.1835  17.2176  17.3715  17.5173  17.6576  17.7147
    17.8524  18.2009

          k = 0.0000-0.5774 0.1545 (  9308 PWs)   bands (ev):

   -70.7663 -70.7497 -70.7335 -70.7318 -70.7132 -70.7016 -70.7016 -70.6948
   -40.8631 -40.8546 -40.8419 -40.8331 -37.0738 -37.0344 -36.9661 -36.9308
   -36.8654 -36.8458 -36.8439 -36.8203 -36.8120 -36.7907 -36.7728 -36.7585
   -36.7572 -36.7569 -36.7265 -36.7214 -36.7100 -36.6809 -36.6789 -36.6561
   -36.6428 -36.6276 -36.6255 -36.6236 -17.1917 -17.1860 -17.1748 -17.1745
   -17.1356 -17.1077 -17.0556 -17.0255 -16.9902 -16.9804 -16.9729 -16.9699
    10.6129  11.1503  11.5981  11.9797  12.6400  12.7203  12.7793  12.8909
    13.0970  13.2218  13.5398  13.5743  13.7426  13.9396  13.9561  13.9583
    13.9929  14.0805  14.0944  14.1165  14.2904  14.3789  14.3915  14.3958
    14.4385  14.4467  14.4943  14.5011  14.6592  14.6668  14.7569  14.7827
    15.0147  15.2196  15.7522  15.8883  15.9419  16.0162  16.0672  16.1042
    16.1996  16.2179  16.5461  16.6250  16.7009  16.7262  16.7818  16.8475
    16.9014  17.2338  17.2585  17.2679  17.3972  17.4760  17.8127  17.8255
    17.8289  18.1624

          k = 0.0000-0.5774 0.2318 (  9316 PWs)   bands (ev):

   -70.7632 -70.7545 -70.7334 -70.7327 -70.7075 -70.7016 -70.7016 -70.6981
   -40.8617 -40.8574 -40.8390 -40.8345 -37.0674 -37.0476 -36.9517 -36.9344
   -36.8604 -36.8401 -36.8322 -36.8321 -36.8262 -36.8047 -36.7709 -36.7634
   -36.7584 -36.7579 -36.7238 -36.7218 -36.6925 -36.6710 -36.6651 -36.6643
   -36.6508 -36.6372 -36.6246 -36.6239 -17.1871 -17.1836 -17.1775 -17.1774
   -17.1322 -17.1176 -17.0459 -17.0303 -16.9863 -16.9779 -16.9768 -16.9722
    10.7628  11.1356  11.4773  11.7825  12.6754  12.7453  12.8478  12.9113
    13.1895  13.2730  13.4440  13.4478  13.8052  13.9267  13.9342  13.9552
    13.9729  13.9868  14.1486  14.1928  14.3014  14.3785  14.3865  14.3937
    14.4176  14.4438  14.4603  14.5033  14.6437  14.6627  14.8187  14.8221
    15.2548  15.4001  15.7000  15.7450  15.8589  15.9041  15.9632  16.0279
    16.2127  16.2322  16.5885  16.6018  16.6924  16.7445  16.8045  16.8350
    16.8561  17.1364  17.2926  17.3587  17.5097  17.5400  17.7579  17.8657
    17.9343  18.1339

          k = 0.0000-0.5774-0.3091 (  9284 PWs)   bands (ev):

   -70.7591 -70.7591 -70.7331 -70.7331 -70.7024 -70.7024 -70.7016 -70.7016
   -40.8597 -40.8597 -40.8366 -40.8366 -37.0587 -37.0587 -36.9409 -36.9409
   -36.8489 -36.8489 -36.8332 -36.8332 -36.8188 -36.8188 -36.7679 -36.7679
   -36.7581 -36.7581 -36.7224 -36.7224 -36.6773 -36.6773 -36.6605 -36.6605
   -36.6497 -36.6497 -36.6240 -36.6240 -17.1820 -17.1820 -17.1806 -17.1806
   -17.1261 -17.1260 -17.0373 -17.0373 -16.9816 -16.9816 -16.9750 -16.9750
    10.9548  10.9548  11.5911  11.5911  12.7083  12.7083  12.9100  12.9100
    13.3092  13.3092  13.3519  13.3519  13.8733  13.8733  13.9333  13.9333
    13.9602  13.9602  14.2054  14.2054  14.3569  14.3569  14.3794  14.3794
    14.4106  14.4106  14.4847  14.4847  14.6489  14.6489  14.8395  14.8395
    15.5054  15.5054  15.5884  15.5884  15.8361  15.8361  15.9642  15.9642
    16.2281  16.2281  16.6298  16.6298  16.6639  16.6639  16.8213  16.8213
    16.9940  16.9940  17.3404  17.3404  17.6591  17.6591  17.6842  17.6842
    18.0490  18.0490

          k = 0.1250 0.2165 0.0000 (  9313 PWs)   bands (ev):

   -70.7814 -70.7586 -70.7285 -70.7179 -70.7076 -70.7016 -70.7015 -70.6953
   -40.8754 -40.8609 -40.8355 -40.8200 -37.1514 -37.0821 -37.0005 -36.8864
   -36.8804 -36.8638 -36.8564 -36.8509 -36.8421 -36.7825 -36.7792 -36.7477
   -36.7389 -36.7384 -36.7371 -36.6717 -36.6645 -36.6451 -36.6393 -36.6382
   -36.6356 -36.6293 -36.6286 -36.6277 -17.1892 -17.1795 -17.1645 -17.1606
   -17.1497 -17.1242 -17.0400 -17.0075 -17.0059 -16.9912 -16.9764 -16.9739
     9.0660  10.9890  11.7220  12.1933  12.5734  12.5898  12.6310  12.8327
    12.9537  13.1008  13.2320  13.4360  13.4897  13.5437  13.7588  13.8995
    13.9703  14.1255  14.2096  14.2806  14.3280  14.3577  14.4126  14.5645
    14.5887  14.6687  14.8716  15.0273  15.1432  15.1650  15.3527  15.5120
    15.6656  15.6751  15.8218  15.8579  15.9672  16.1049  16.1649  16.1994
    16.2176  16.2765  16.4234  16.5034  16.5313  16.7232  16.7761  16.8054
    16.9477  17.1267  17.1562  17.3076  17.3375  17.3506  17.6474  17.6796
    17.7182  17.8339

          k = 0.1250 0.2165 0.0773 (  9312 PWs)   bands (ev):

   -70.7808 -70.7600 -70.7274 -70.7180 -70.7073 -70.7016 -70.7015 -70.6958
   -40.8750 -40.8618 -40.8346 -40.8204 -37.1498 -37.0878 -36.9927 -36.8858
   -36.8837 -36.8640 -36.8534 -36.8518 -36.8378 -36.8095 -36.7622 -36.7579
   -36.7512 -36.7252 -36.7203 -36.6717 -36.6643 -36.6466 -36.6413 -36.6374
   -36.6361 -36.6315 -36.6280 -36.6276 -17.1882 -17.1790 -17.1651 -17.1622
   -17.1483 -17.1252 -17.0391 -17.0119 -17.0014 -16.9906 -16.9769 -16.9747
     9.1075  10.7821  11.8962  12.1934  12.5057  12.6313  12.6326  12.9042
    12.9522  13.1009  13.2107  13.4057  13.5087  13.5564  13.7592  13.8971
    13.9529  14.1025  14.1403  14.2611  14.3592  14.3760  14.4892  14.6007
    14.6065  14.6984  14.8903  15.0257  15.1155  15.1542  15.3809  15.4889
    15.6231  15.6734  15.7912  15.8593  15.9404  16.0854  16.1368  16.1999
    16.2169  16.2827  16.3750  16.5240  16.5390  16.7326  16.7663  16.8223
    16.9901  17.1605  17.1695  17.2922  17.3523  17.3717  17.6008  17.6759
    17.7671  17.8073

          k = 0.1250 0.2165 0.1545 (  9296 PWs)   bands (ev):

   -70.7789 -70.7635 -70.7250 -70.7184 -70.7062 -70.7016 -70.7015 -70.6973
   -40.8739 -40.8640 -40.8323 -40.8217 -37.1451 -37.1003 -36.9736 -36.8914
   -36.8839 -36.8638 -36.8568 -36.8418 -36.8369 -36.8292 -36.7803 -36.7736
   -36.7283 -36.7099 -36.7035 -36.6719 -36.6636 -36.6509 -36.6457 -36.6387
   -36.6371 -36.6351 -36.6277 -36.6275 -17.1855 -17.1775 -17.1668 -17.1661
   -17.1450 -17.1278 -17.0364 -17.0171 -16.9961 -16.9889 -16.9784 -16.9770
     9.2309  10.4109  12.1400  12.1944  12.4597  12.6349  12.6867  12.9583
    13.0432  13.0767  13.1586  13.3629  13.5576  13.5655  13.7378  13.8753
    13.9400  14.0506  14.0877  14.1863  14.3715  14.5164  14.6016  14.6464
    14.6899  14.7590  14.9258  15.0302  15.0416  15.1279  15.4232  15.4287
    15.4949  15.6897  15.7708  15.8633  15.8941  16.0195  16.0827  16.1109
    16.2016  16.2910  16.3845  16.5206  16.5935  16.7225  16.7237  16.8326
    17.0850  17.1789  17.2253  17.3419  17.3746  17.4327  17.5513  17.6581
    17.7455  17.7993

          k = 0.1250 0.2165 0.2318 (  9311 PWs)   bands (ev):

   -70.7760 -70.7678 -70.7224 -70.7191 -70.7044 -70.7016 -70.7016 -70.6995
   -40.8720 -40.8668 -40.8293 -40.8237 -37.1375 -37.1143 -36.9495 -36.9045
   -36.8804 -36.8637 -36.8596 -36.8589 -36.8291 -36.8182 -36.7979 -36.7900
   -36.7090 -36.6992 -36.6882 -36.6720 -36.6626 -36.6580 -36.6512 -36.6458
   -36.6369 -36.6362 -36.6276 -36.6274 -17.1815 -17.1752 -17.1710 -17.1693
   -17.1408 -17.1316 -17.0325 -17.0224 -16.9906 -16.9864 -16.9807 -16.9807
     9.4323  10.0375  12.1994  12.2218  12.5228  12.6289  12.7730  12.9834
    13.0007  13.0943  13.1802  13.3374  13.5694  13.6261  13.6745  13.8070
    13.9689  14.0253  14.0671  14.1267  14.4399  14.6278  14.6888  14.7011
    14.7917  14.8083  14.9510  14.9571  15.0357  15.0965  15.3004  15.3253
    15.5599  15.7004  15.7857  15.8608  15.8683  15.9262  15.9872  15.9982
    16.2205  16.3020  16.4210  16.5762  16.6209  16.6431  16.7038  16.7742
    17.1786  17.2208  17.2722  17.3256  17.4618  17.5071  17.5294  17.6125
    17.7026  17.7625

          k = 0.1250 0.2165-0.3091 (  9318 PWs)   bands (ev):

   -70.7722 -70.7722 -70.7205 -70.7205 -70.7020 -70.7020 -70.7016 -70.7016
   -40.8696 -40.8696 -40.8263 -40.8263 -37.1271 -37.1271 -36.9249 -36.9249
   -36.8735 -36.8735 -36.8614 -36.8614 -36.8144 -36.8144 -36.8050 -36.8050
   -36.6981 -36.6981 -36.6758 -36.6758 -36.6627 -36.6627 -36.6519 -36.6519
   -36.6366 -36.6366 -36.6275 -36.6275 -17.1765 -17.1765 -17.1722 -17.1722
   -17.1361 -17.1361 -17.0277 -17.0277 -16.9855 -16.9855 -16.9834 -16.9834
     9.7049   9.7049  12.2118  12.2118  12.5981  12.5981  12.8870  12.8870
    13.0328  13.0328  13.2841  13.2841  13.6030  13.6030  13.7156  13.7156
    14.0041  14.0041  14.0830  14.0830  14.5559  14.5559  14.7602  14.7602
    14.8337  14.8337  14.9269  14.9269  15.0608  15.0608  15.2511  15.2511
    15.6543  15.6543  15.8383  15.8383  15.8649  15.8649  15.9431  15.9431
    16.2654  16.2654  16.5049  16.5049  16.6742  16.6742  16.6797  16.6797
    17.2518  17.2518  17.2770  17.2770  17.5016  17.5016  17.5848  17.5848
    17.6976  17.6976

          k = 0.1250 0.3608 0.0000 (  9308 PWs)   bands (ev):

   -70.7749 -70.7518 -70.7285 -70.7265 -70.7145 -70.7016 -70.7016 -70.6932
   -40.8701 -40.8552 -40.8413 -40.8257 -37.1122 -37.0438 -36.9969 -36.9017
   -36.8827 -36.8601 -36.8517 -36.8360 -36.8107 -36.7829 -36.7717 -36.7550
   -36.7416 -36.7396 -36.7385 -36.7161 -36.6861 -36.6643 -36.6582 -36.6433
   -36.6359 -36.6342 -36.6333 -36.6235 -17.1933 -17.1868 -17.1710 -17.1672
   -17.1401 -17.1037 -17.0589 -17.0180 -16.9989 -16.9847 -16.9720 -16.9692
     9.6232  11.3746  12.0434  12.1203  12.4616  12.5659  12.6151  12.8940
    12.9595  13.0626  13.4802  13.5763  13.6388  13.6869  13.7139  13.9300
    13.9302  14.1498  14.2605  14.3156  14.3267  14.3621  14.4251  14.4816
    14.4926  14.5407  14.5478  14.6945  14.8268  14.9357  14.9975  15.0810
    15.2208  15.3939  15.7149  15.8479  15.9961  16.0670  16.1528  16.2728
    16.2740  16.3163  16.4645  16.5756  16.6018  16.6803  16.8436  16.8850
    17.0267  17.0313  17.1312  17.3159  17.3540  17.3664  17.7351  17.7404
    17.9079  17.9940

          k = 0.1250 0.3608 0.0773 (  9293 PWs)   bands (ev):

   -70.7743 -70.7532 -70.7281 -70.7265 -70.7134 -70.7016 -70.7015 -70.6938
   -40.8697 -40.8563 -40.8401 -40.8261 -37.1107 -37.0508 -36.9882 -36.9037
   -36.8824 -36.8568 -36.8509 -36.8360 -36.8098 -36.8007 -36.7688 -36.7599
   -36.7486 -36.7322 -36.7243 -36.7137 -36.6838 -36.6646 -36.6581 -36.6450
   -36.6381 -36.6334 -36.6332 -36.6252 -17.1923 -17.1862 -17.1717 -17.1679
   -17.1395 -17.1063 -17.0564 -17.0194 -16.9975 -16.9841 -16.9728 -16.9698
     9.6621  11.1965  12.0887  12.2261  12.4505  12.5676  12.6041  12.9136
    12.9772  13.0812  13.4408  13.5406  13.6550  13.7155  13.7201  13.9199
    13.9473  14.1119  14.2305  14.2781  14.3061  14.3826  14.3999  14.4459
    14.5550  14.5664  14.6263  14.7425  14.8188  14.9366  15.0177  15.0810
    15.2180  15.3988  15.7135  15.8112  15.9511  16.0492  16.1615  16.1965
    16.2552  16.3155  16.4525  16.5792  16.6518  16.6731  16.8378  16.8898
    17.0120  17.0609  17.1970  17.2863  17.3636  17.3693  17.6244  17.8105
    17.9432  17.9933

          k = 0.1250 0.3608 0.1545 (  9300 PWs)   bands (ev):

   -70.7725 -70.7568 -70.7275 -70.7265 -70.7104 -70.7016 -70.7015 -70.6956
   -40.8686 -40.8589 -40.8375 -40.8273 -37.1065 -37.0643 -36.9703 -36.9094
   -36.8801 -36.8498 -36.8486 -36.8356 -36.8239 -36.8071 -36.7849 -36.7712
   -36.7388 -36.7263 -36.7091 -36.7041 -36.6777 -36.6649 -36.6578 -36.6499
   -36.6424 -36.6346 -36.6325 -36.6296 -17.1894 -17.1845 -17.1736 -17.1701
   -17.1375 -17.1124 -17.0504 -17.0232 -16.9939 -16.9824 -16.9752 -16.9714
     9.7774  10.8650  12.1197  12.3885  12.4283  12.5803  12.6461  12.9176
    13.0403  13.1266  13.3614  13.4590  13.6851  13.7243  13.7755  13.9214
    13.9605  14.0511  14.1642  14.2007  14.3000  14.3340  14.4594  14.4951
    14.5777  14.5915  14.7397  14.7731  14.8795  14.9384  15.0133  15.1353
    15.2232  15.4288  15.7039  15.7285  15.8785  15.9789  16.0703  16.1236
    16.1811  16.3013  16.4937  16.5831  16.6768  16.7033  16.7877  16.9152
    17.0396  17.1017  17.2585  17.2938  17.3521  17.3926  17.5844  17.8200
    17.8738  18.0610

          k = 0.1250 0.3608 0.2318 (  9298 PWs)   bands (ev):

   -70.7695 -70.7612 -70.7271 -70.7266 -70.7064 -70.7016 -70.7015 -70.6985
   -40.8669 -40.8618 -40.8345 -40.8291 -37.0995 -37.0780 -36.9506 -36.9189
   -36.8743 -36.8488 -36.8459 -36.8412 -36.8300 -36.8036 -36.8002 -36.7837
   -36.7313 -36.7257 -36.6952 -36.6921 -36.6709 -36.6630 -36.6593 -36.6552
   -36.6473 -36.6411 -36.6321 -36.6315 -17.1852 -17.1819 -17.1764 -17.1738
   -17.1333 -17.1199 -17.0429 -17.0287 -16.9891 -16.9801 -16.9787 -16.9739
     9.9652  10.5247  12.1628  12.3017  12.5431  12.5982  12.7510  12.8963
    13.1129  13.1898  13.2752  13.3649  13.7169  13.7388  13.7949  13.9130
    13.9713  14.0261  14.1197  14.1662  14.2883  14.3259  14.4932  14.5230
    14.5749  14.6204  14.7763  14.8181  14.9076  14.9585  15.0358  15.1391
    15.3299  15.4917  15.6646  15.7063  15.7815  15.8719  15.9307  15.9907
    16.2114  16.2838  16.5513  16.6083  16.6654  16.6829  16.7773  16.8753
    17.1125  17.1484  17.2358  17.2853  17.3938  17.4519  17.6344  17.7911
    17.8188  17.9853

          k = 0.1250 0.3608-0.3091 (  9290 PWs)   bands (ev):

   -70.7656 -70.7656 -70.7268 -70.7268 -70.7022 -70.7022 -70.7016 -70.7016
   -40.8646 -40.8646 -40.8316 -40.8316 -37.0899 -37.0899 -36.9327 -36.9327
   -36.8635 -36.8635 -36.8433 -36.8433 -36.8176 -36.8176 -36.7941 -36.7941
   -36.7273 -36.7273 -36.6874 -36.6874 -36.6666 -36.6666 -36.6563 -36.6563
   -36.6489 -36.6489 -36.6318 -36.6318 -17.1807 -17.1807 -17.1779 -17.1779
   -17.1272 -17.1272 -17.0354 -17.0354 -16.9840 -16.9840 -16.9767 -16.9767
    10.2182  10.2182  12.2236  12.2236  12.5915  12.5915  12.8424  12.8424
    13.1860  13.1860  13.2775  13.2775  13.7342  13.7342  13.8413  13.8413
    14.0091  14.0091  14.1411  14.1411  14.2978  14.2978  14.5179  14.5179
    14.5996  14.5996  14.8131  14.8131  14.9331  14.9331  15.0962  15.0962
    15.4745  15.4745  15.6979  15.6979  15.7342  15.7342  15.9128  15.9128
    16.2512  16.2512  16.5981  16.5981  16.6614  16.6614  16.8138  16.8138
    17.1822  17.1822  17.2131  17.2131  17.4666  17.4666  17.7132  17.7132
    17.8653  17.8653

          k = 0.1250 0.5052 0.0000 (  9284 PWs)   bands (ev):

   -70.7689 -70.7446 -70.7336 -70.7284 -70.7216 -70.7016 -70.7015 -70.6921
   -40.8642 -40.8490 -40.8475 -40.8319 -37.0757 -37.0062 -36.9940 -36.9308
   -36.8776 -36.8622 -36.8523 -36.8076 -36.7835 -36.7787 -36.7700 -36.7607
   -36.7554 -36.7421 -36.7398 -36.7345 -36.7018 -36.6937 -36.6821 -36.6465
   -36.6359 -36.6356 -36.6338 -36.6198 -17.1956 -17.1893 -17.1755 -17.1736
   -17.1310 -17.0885 -17.0736 -17.0276 -16.9926 -16.9804 -16.9728 -16.9645
    10.3430  11.3624  11.9509  12.2961  12.3309  12.6473  12.6710  12.8593
    12.9422  13.1541  13.6444  13.6810  13.8009  13.8018  13.8576  13.9401
    13.9445  14.0483  14.1542  14.1929  14.2555  14.3343  14.4073  14.4197
    14.4824  14.5231  14.5321  14.5947  14.6036  14.6572  14.7620  14.7973
    14.9293  15.1060  15.6943  15.8388  15.9548  16.0522  16.1123  16.1723
    16.3346  16.3899  16.4188  16.6185  16.7038  16.7340  16.8774  16.8794
    17.1084  17.1115  17.1603  17.2295  17.3475  17.4924  17.6781  17.7530
    17.9149  18.1740

          k = 0.1250 0.5052 0.0773 (  9290 PWs)   bands (ev):

   -70.7682 -70.7461 -70.7336 -70.7301 -70.7186 -70.7016 -70.7015 -70.6928
   -40.8639 -40.8516 -40.8449 -40.8322 -37.0745 -37.0175 -36.9823 -36.9315
   -36.8773 -36.8591 -36.8510 -36.8091 -36.7927 -36.7807 -36.7752 -36.7642
   -36.7547 -36.7449 -36.7308 -36.7269 -36.7014 -36.6896 -36.6806 -36.6484
   -36.6390 -36.6340 -36.6339 -36.6217 -17.1947 -17.1886 -17.1763 -17.1735
   -17.1311 -17.0949 -17.0672 -17.0279 -16.9921 -16.9797 -16.9736 -16.9651
    10.3770  11.3702  11.7981  12.2400  12.4902  12.6352  12.6763  12.8477
    12.9735  13.1685  13.6150  13.6756  13.7708  13.8183  13.8893  13.9215
    13.9682  14.0604  14.1086  14.1744  14.2596  14.2738  14.3903  14.4414
    14.4727  14.5141  14.5504  14.5816  14.6162  14.7362  14.7759  14.8345
    14.9543  15.1329  15.6914  15.8223  15.9144  16.0347  16.1063  16.1578
    16.2743  16.3104  16.5250  16.6300  16.7010  16.7211  16.8268  16.8954
    17.0589  17.1418  17.2164  17.2645  17.3195  17.4763  17.6644  17.8486
    17.9241  18.0957

          k = 0.1250 0.5052 0.1545 (  9289 PWs)   bands (ev):

   -70.7663 -70.7497 -70.7335 -70.7319 -70.7131 -70.7016 -70.7016 -70.6948
   -40.8631 -40.8546 -40.8419 -40.8331 -37.0707 -37.0321 -36.9668 -36.9334
   -36.8745 -36.8515 -36.8472 -36.8142 -36.8116 -36.7915 -36.7765 -36.7687
   -36.7538 -36.7488 -36.7186 -36.7143 -36.6990 -36.6798 -36.6753 -36.6539
   -36.6442 -36.6343 -36.6331 -36.6270 -17.1922 -17.1865 -17.1783 -17.1740
   -17.1308 -17.1052 -17.0571 -17.0295 -16.9906 -16.9780 -16.9759 -16.9667
    10.4773  11.3212  11.6310  12.1293  12.6268  12.6540  12.7109  12.8439
    13.0485  13.2031  13.5427  13.5908  13.8099  13.8361  13.9092  13.9155
    13.9604  14.0654  14.0942  14.1362  14.2111  14.2847  14.3480  14.4093
    14.4459  14.5125  14.5657  14.5885  14.6424  14.7963  14.8480  14.8996
    15.0706  15.2281  15.6821  15.7602  15.8215  15.9653  16.0789  16.1366
    16.1724  16.2468  16.5955  16.6036  16.6759  16.7677  16.8097  16.9037
    17.0097  17.1702  17.2486  17.2707  17.3666  17.4593  17.6912  17.9153
    18.0172  18.0445

          k = 0.1250 0.5052 0.2318 (  9298 PWs)   bands (ev):

   -70.7632 -70.7545 -70.7334 -70.7328 -70.7075 -70.7016 -70.7015 -70.6980
   -40.8616 -40.8573 -40.8391 -40.8346 -37.0645 -37.0450 -36.9534 -36.9373
   -36.8668 -36.8429 -36.8418 -36.8337 -36.8176 -36.8052 -36.7759 -36.7721
   -36.7532 -36.7512 -36.7121 -36.7083 -36.6887 -36.6708 -36.6644 -36.6620
   -36.6512 -36.6391 -36.6327 -36.6316 -17.1888 -17.1832 -17.1813 -17.1758
   -17.1284 -17.1150 -17.0475 -17.0332 -16.9877 -16.9795 -16.9753 -16.9692
    10.6394  11.1024  11.6746  11.9729  12.6416  12.6654  12.8088  12.8505
    13.1656  13.2588  13.4380  13.4756  13.8509  13.8628  13.8968  13.9050
    13.9572  14.0349  14.0801  14.1686  14.2082  14.2872  14.3439  14.3682
    14.4281  14.4881  14.5456  14.5728  14.6999  14.7923  14.9346  14.9460
    15.2669  15.3782  15.6495  15.6820  15.7078  15.8420  16.0270  16.0682
    16.1512  16.2019  16.5981  16.6287  16.6759  16.7510  16.8402  16.9207
    16.9903  17.1428  17.2479  17.3287  17.3884  17.4914  17.7699  17.8802
    17.9704  18.0459

          k = 0.1250 0.5052-0.3091 (  9310 PWs)   bands (ev):

   -70.7592 -70.7592 -70.7332 -70.7332 -70.7024 -70.7024 -70.7016 -70.7016
   -40.8597 -40.8597 -40.8366 -40.8366 -37.0559 -37.0559 -36.9436 -36.9436
   -36.8532 -36.8532 -36.8378 -36.8378 -36.8163 -36.8163 -36.7745 -36.7745
   -36.7525 -36.7525 -36.7089 -36.7089 -36.6754 -36.6754 -36.6604 -36.6604
   -36.6503 -36.6503 -36.6324 -36.6324 -17.1850 -17.1850 -17.1792 -17.1792
   -17.1230 -17.1230 -17.0393 -17.0393 -16.9837 -16.9837 -16.9722 -16.9722
    10.8539  10.8539  11.8097  11.8097  12.6577  12.6577  12.8471  12.8471
    13.2875  13.2875  13.3740  13.3740  13.8783  13.8783  13.8816  13.8816
    13.9898  13.9898  14.1217  14.1217  14.2542  14.2542  14.3735  14.3735
    14.4300  14.4300  14.5526  14.5526  14.7550  14.7550  14.9678  14.9678
    15.4514  15.4514  15.5877  15.5877  15.7199  15.7199  16.0160  16.0160
    16.1739  16.1739  16.6196  16.6196  16.7042  16.7042  16.8880  16.8880
    17.0547  17.0547  17.2956  17.2956  17.4718  17.4718  17.8422  17.8422
    17.9541  17.9541

          k = 0.2500 0.4330 0.0000 (  9262 PWs)   bands (ev):

   -70.7689 -70.7447 -70.7336 -70.7284 -70.7216 -70.7016 -70.7015 -70.6921
   -40.8642 -40.8490 -40.8475 -40.8319 -37.0723 -37.0041 -36.9940 -36.9303
   -36.8953 -36.8608 -36.8542 -36.8054 -36.7829 -36.7814 -36.7650 -36.7573
   -36.7568 -36.7464 -36.7428 -36.7334 -36.6935 -36.6670 -36.6653 -36.6579
   -36.6518 -36.6436 -36.6377 -36.6199 -17.1953 -17.1906 -17.1781 -17.1740
   -17.1253 -17.0835 -17.0775 -17.0331 -16.9917 -16.9784 -16.9746 -16.9628
    10.2489  11.7571  11.8330  12.2995  12.3022  12.6090  12.6718  12.7916
    12.8141  13.1200  13.6540  13.7408  13.7637  13.7869  13.8562  13.8773
    13.8950  14.0330  14.2186  14.2289  14.2686  14.2838  14.4099  14.4429
    14.4722  14.4855  14.5011  14.5275  14.6350  14.7689  14.8920  14.9257
    15.0408  15.1579  15.6150  15.7880  15.8092  15.9675  16.0290  16.1288
    16.4552  16.4586  16.5163  16.5339  16.6862  16.7246  16.7479  17.1067
    17.1295  17.1369  17.2433  17.2704  17.2995  17.4145  17.7131  17.7862
    17.9437  17.9622

          k = 0.2500 0.4330 0.0773 (  9304 PWs)   bands (ev):

   -70.7682 -70.7461 -70.7336 -70.7301 -70.7186 -70.7016 -70.7016 -70.6928
   -40.8639 -40.8515 -40.8450 -40.8322 -37.0712 -37.0156 -36.9826 -36.9316
   -36.8933 -36.8586 -36.8530 -36.8074 -36.7919 -36.7826 -36.7706 -36.7687
   -36.7528 -36.7462 -36.7318 -36.7257 -36.6900 -36.6670 -36.6652 -36.6581
   -36.6517 -36.6452 -36.6391 -36.6220 -17.1947 -17.1896 -17.1787 -17.1740
   -17.1257 -17.0923 -17.0688 -17.0332 -16.9915 -16.9778 -16.9754 -16.9633
    10.2839  11.6214  11.8504  12.2213  12.4903  12.5851  12.6043  12.8135
    12.8832  13.1349  13.6164  13.6924  13.7560  13.8133  13.8795  13.8824
    13.9285  14.0277  14.1569  14.1656  14.2454  14.3107  14.3693  14.4332
    14.4827  14.4890  14.5402  14.5462  14.6646  14.7997  14.9255  14.9636
    15.0510  15.1625  15.6138  15.7677  15.7782  15.9614  16.0359  16.0955
    16.3349  16.4179  16.5588  16.6202  16.6282  16.6891  16.8508  17.1167
    17.1340  17.1411  17.1529  17.2672  17.3839  17.3967  17.6971  17.7142
    17.9812  18.0626

          k = 0.2500 0.4330 0.1545 (  9312 PWs)   bands (ev):

   -70.7663 -70.7498 -70.7335 -70.7319 -70.7131 -70.7016 -70.7016 -70.6948
   -40.8630 -40.8545 -40.8419 -40.8331 -37.0676 -37.0297 -36.9681 -36.9349
   -36.8866 -36.8525 -36.8491 -36.8162 -36.8083 -36.7906 -36.7766 -36.7740
   -36.7518 -36.7481 -36.7142 -36.7120 -36.6810 -36.6669 -36.6647 -36.6587
   -36.6512 -36.6489 -36.6429 -36.6275 -17.1929 -17.1869 -17.1807 -17.1742
   -17.1259 -17.1030 -17.0583 -17.0338 -16.9905 -16.9779 -16.9758 -16.9649
    10.3877  11.3453  11.9017  12.2295  12.4376  12.5845  12.7081  12.8152
    13.0178  13.1784  13.5342  13.5999  13.7572  13.8177  13.9105  13.9177
    13.9917  14.0171  14.0300  14.1102  14.2648  14.2785  14.3358  14.4050
    14.4463  14.4740  14.5502  14.6088  14.7399  14.9083  14.9148  15.0524
    15.1205  15.2295  15.6059  15.6721  15.7352  15.9221  16.0185  16.0484
    16.2003  16.3247  16.5711  16.6316  16.6705  16.7161  16.9116  17.0938
    17.0971  17.1772  17.1849  17.2432  17.3368  17.4689  17.6455  17.6664
    18.0124  18.1792

          k = 0.2500 0.4330 0.2318 (  9287 PWs)   bands (ev):

   -70.7632 -70.7544 -70.7334 -70.7328 -70.7075 -70.7016 -70.7015 -70.6980
   -40.8616 -40.8573 -40.8391 -40.8346 -37.0614 -37.0423 -36.9559 -36.9398
   -36.8747 -36.8452 -36.8436 -36.8357 -36.8153 -36.8045 -36.7776 -36.7760
   -36.7513 -36.7496 -36.7005 -36.7003 -36.6710 -36.6667 -36.6632 -36.6598
   -36.6538 -36.6489 -36.6481 -36.6356 -17.1902 -17.1841 -17.1823 -17.1756
   -17.1245 -17.1125 -17.0490 -17.0364 -16.9884 -16.9812 -16.9733 -16.9673
    10.5559  11.0508  11.9828  12.1927  12.4064  12.5390  12.8059  12.8231
    13.1798  13.2472  13.4375  13.4811  13.7763  13.8103  13.9079  13.9114
    13.9826  14.0051  14.0499  14.1110  14.2289  14.2765  14.3371  14.3732
    14.4040  14.4569  14.5600  14.6200  14.7963  14.8820  15.0557  15.0618
    15.2883  15.3477  15.5816  15.6045  15.6426  15.8034  15.9676  16.0135
    16.1483  16.2347  16.5977  16.6599  16.6790  16.7330  16.9283  17.0253
    17.1164  17.2201  17.2239  17.2714  17.3018  17.4657  17.6354  17.6432
    18.0238  18.1268

          k = 0.2500 0.4330-0.3091 (  9274 PWs)   bands (ev):

   -70.7591 -70.7591 -70.7332 -70.7332 -70.7023 -70.7023 -70.7015 -70.7015
   -40.8597 -40.8597 -40.8366 -40.8366 -37.0529 -37.0529 -36.9466 -36.9466
   -36.8579 -36.8579 -36.8395 -36.8395 -36.8149 -36.8149 -36.7772 -36.7772
   -36.7506 -36.7506 -36.6952 -36.6952 -36.6666 -36.6666 -36.6611 -36.6611
   -36.6535 -36.6535 -36.6440 -36.6440 -17.1870 -17.1870 -17.1787 -17.1787
   -17.1200 -17.1200 -17.0415 -17.0415 -16.9850 -16.9850 -16.9702 -16.9702
    10.7810  10.7810  12.0866  12.0866  12.4696  12.4696  12.8288  12.8288
    13.3226  13.3226  13.3568  13.3568  13.7980  13.7980  13.8919  13.8919
    13.9924  13.9924  14.0963  14.0963  14.2475  14.2475  14.3420  14.3420
    14.4283  14.4283  14.5860  14.5860  14.8459  14.8459  15.0948  15.0948
    15.4042  15.4042  15.5611  15.5611  15.6577  15.6577  15.9625  15.9625
    16.1780  16.1780  16.6332  16.6332  16.7159  16.7159  16.9631  16.9631
    17.1649  17.1649  17.2562  17.2562  17.4016  17.4016  17.6348  17.6348
    18.0544  18.0544

          k = 0.2500 0.5774 0.0000 (  9322 PWs)   bands (ev):

   -70.7656 -70.7398 -70.7373 -70.7285 -70.7266 -70.7016 -70.7016 -70.6917
   -40.8594 -40.8524 -40.8440 -40.8369 -37.0477 -36.9930 -36.9743 -36.9582
   -36.9064 -36.8606 -36.8564 -36.7845 -36.7844 -36.7810 -36.7691 -36.7632
   -36.7550 -36.7501 -36.7472 -36.7048 -36.7018 -36.6840 -36.6812 -36.6627
   -36.6567 -36.6436 -36.6389 -36.6188 -17.1987 -17.1870 -17.1810 -17.1793
   -17.1139 -17.0903 -17.0699 -17.0448 -16.9865 -16.9782 -16.9757 -16.9600
    10.7811  11.4052  11.9457  12.2780  12.4021  12.5784  12.7215  12.7543
    12.7673  13.1087  13.7861  13.7963  13.7968  13.8679  13.9022  13.9186
    13.9866  14.0118  14.0930  14.0960  14.1048  14.1616  14.2785  14.3401
    14.4918  14.5215  14.5686  14.5738  14.6147  14.7919  14.9188  14.9276
    14.9471  15.0359  15.6379  15.6963  15.7476  15.7991  15.9246  16.0529
    16.5004  16.5159  16.5574  16.6422  16.7099  16.8486  16.8624  16.8755
    17.0718  17.1450  17.3100  17.3167  17.3758  17.4435  17.7759  17.8025
    17.8634  17.9714

          k = 0.2500 0.5774 0.0773 (  9308 PWs)   bands (ev):

   -70.7649 -70.7407 -70.7373 -70.7333 -70.7207 -70.7016 -70.7016 -70.6924
   -40.8592 -40.8529 -40.8435 -40.8371 -37.0465 -36.9991 -36.9699 -36.9583
   -36.9027 -36.8587 -36.8547 -36.7886 -36.7878 -36.7813 -36.7795 -36.7759
   -36.7494 -36.7452 -36.7340 -36.7039 -36.6997 -36.6825 -36.6796 -36.6629
   -36.6564 -36.6450 -36.6403 -36.6207 -17.1980 -17.1861 -17.1817 -17.1788
   -17.1150 -17.0952 -17.0651 -17.0440 -16.9867 -16.9789 -16.9751 -16.9605
    10.8108  11.4298  11.9568  12.0457  12.5019  12.5803  12.7062  12.7973
    12.8230  13.1278  13.7463  13.7716  13.8290  13.8503  13.8923  13.9386
    13.9730  13.9943  14.0392  14.0813  14.1450  14.2038  14.2539  14.2549
    14.4504  14.5021  14.6054  14.6562  14.6670  14.8117  14.8844  14.9127
    15.0174  15.0852  15.6317  15.6773  15.6895  15.8466  15.9353  16.0197
    16.3969  16.4440  16.6314  16.6315  16.7136  16.8361  16.8894  16.9002
    17.0874  17.1608  17.2642  17.3232  17.3370  17.4660  17.7907  17.7976
    17.8867  18.0169

          k = 0.2500 0.5774 0.1545 (  9287 PWs)   bands (ev):

   -70.7629 -70.7445 -70.7373 -70.7361 -70.7141 -70.7016 -70.7016 -70.6945
   -40.8587 -40.8541 -40.8423 -40.8376 -37.0432 -37.0100 -36.9643 -36.9585
   -36.8921 -36.8532 -36.8502 -36.8077 -36.7984 -36.7936 -36.7813 -36.7802
   -36.7431 -36.7417 -36.7168 -36.7023 -36.6942 -36.6783 -36.6741 -36.6635
   -36.6556 -36.6489 -36.6442 -36.6263 -17.1962 -17.1838 -17.1837 -17.1778
   -17.1173 -17.1039 -17.0568 -17.0424 -16.9871 -16.9808 -16.9733 -16.9621
    10.8988  11.4918  11.7781  11.9729  12.3773  12.5511  12.8071  12.8484
    12.9858  13.1805  13.6860  13.7024  13.7791  13.8257  13.9075  13.9354
    13.9520  13.9788  14.0537  14.0762  14.1492  14.1854  14.2147  14.2210
    14.3895  14.5021  14.6146  14.6946  14.7511  14.8370  14.9202  14.9473
    15.1336  15.2116  15.5980  15.6030  15.6264  15.8923  15.9371  15.9593
    16.2665  16.3136  16.6238  16.6472  16.7383  16.8227  16.9344  16.9438
    17.1385  17.1602  17.2163  17.2531  17.3759  17.4546  17.7595  17.7846
    17.9950  18.0024

          k = 0.2500 0.5774 0.2318 (  9277 PWs)   bands (ev):

   -70.7596 -70.7500 -70.7372 -70.7369 -70.7078 -70.7016 -70.7015 -70.6978
   -40.8579 -40.8555 -40.8409 -40.8384 -37.0377 -37.0207 -36.9610 -36.9588
   -36.8755 -36.8458 -36.8442 -36.8317 -36.8086 -36.8063 -36.7812 -36.7809
   -36.7397 -36.7393 -36.7064 -36.7015 -36.6856 -36.6733 -36.6662 -36.6643
   -36.6541 -36.6539 -36.6493 -36.6349 -17.1934 -17.1867 -17.1809 -17.1773
   -17.1187 -17.1118 -17.0492 -17.0418 -16.9870 -16.9833 -16.9706 -16.9646
    11.0411  11.4415  11.6830  11.9299  12.3199  12.4595  12.8540  12.8744
    13.2099  13.2596  13.5568  13.6143  13.7604  13.7873  13.9077  13.9284
    13.9305  13.9500  14.0859  14.0947  14.1421  14.1642  14.2007  14.2486
    14.3560  14.4516  14.6653  14.6933  14.7356  14.7863  15.0553  15.0594
    15.2803  15.3580  15.4975  15.5534  15.5566  15.7812  15.9544  15.9772
    16.1758  16.1958  16.6253  16.6389  16.7646  16.8060  16.9737  16.9884
    17.0895  17.1560  17.2476  17.2742  17.3770  17.4092  17.7458  17.7644
    17.9820  18.0149

          k = 0.2500 0.5774-0.3091 (  9282 PWs)   bands (ev):

   -70.7552 -70.7552 -70.7371 -70.7371 -70.7024 -70.7024 -70.7016 -70.7016
   -40.8568 -40.8568 -40.8395 -40.8395 -37.0301 -37.0301 -36.9596 -36.9596
   -36.8548 -36.8548 -36.8409 -36.8409 -36.8132 -36.8132 -36.7812 -36.7812
   -36.7386 -36.7386 -36.7024 -36.7024 -36.6764 -36.6764 -36.6614 -36.6614
   -36.6573 -36.6573 -36.6446 -36.6446 -17.1901 -17.1901 -17.1783 -17.1783
   -17.1170 -17.1170 -17.0440 -17.0440 -16.9856 -16.9856 -16.9676 -16.9676
    11.2301  11.2301  11.8054  11.8054  12.3683  12.3683  12.8752  12.8752
    13.3318  13.3318  13.5034  13.5034  13.7655  13.7655  13.9054  13.9054
    13.9347  13.9347  14.0944  14.0944  14.1645  14.1645  14.2250  14.2250
    14.3870  14.3870  14.7035  14.7035  14.7285  14.7285  15.1234  15.1234
    15.4080  15.4080  15.4500  15.4500  15.6276  15.6276  15.9766  15.9766
    16.1472  16.1472  16.6311  16.6311  16.7866  16.7866  17.0005  17.0005
    17.0944  17.0944  17.3114  17.3114  17.3584  17.3584  17.7486  17.7486
    17.9894  17.9894

     the Fermi energy is    16.1725 ev

!    total energy              =   -3111.29409203 Ry
     estimated scf accuracy    <          5.7E-10 Ry
     smearing contrib. (-TS)   =      -0.00020621 Ry
     internal energy E=F+TS    =   -3111.29388582 Ry

     The total energy is F=E-TS. E is the sum of the following terms:
     one-electron contribution =   -1208.28491426 Ry
     hartree contribution      =     698.24676156 Ry
     xc contribution           =    -349.41193163 Ry
     ewald contribution        =   -1642.60130586 Ry
     one-center paw contrib.   =    -609.24249563 Ry

     convergence has been achieved in  32 iterations

     negative rho (up, down):  3.720E-03 0.000E+00

     Forces acting on atoms (cartesian axes, Ry/au):

     atom    1 type  1   force =    -0.01381636    0.00797688    0.00000000
     atom    2 type  1   force =     0.01381636   -0.00797688   -0.00000000
     atom    3 type  1   force =     0.00000000    0.01595376    0.00000000
     atom    4 type  1   force =     0.01381636    0.00797688    0.00000000
     atom    5 type  1   force =    -0.00000000   -0.01595376    0.00000000
     atom    6 type  1   force =    -0.01381636   -0.00797688    0.00000000
     atom    7 type  1   force =    -0.00000000   -0.00000000    0.00000000
     atom    8 type  1   force =    -0.00000000   -0.00000000    0.00000000
     atom    9 type  2   force =     0.00000000    0.00000000   -0.01078988
     atom   10 type  2   force =     0.00000000    0.00000000   -0.01078988
     atom   11 type  2   force =     0.00000000    0.00000000    0.01078988
     atom   12 type  2   force =    -0.00000000   -0.00000000    0.01078988

     Total force =     0.044641     Total SCF correction =     0.000015


     Computing stress (Cartesian axis) and pressure


     negative rho (up, down):  3.720E-03 0.000E+00
          total   stress  (Ry/bohr**3)                   (kbar)     P=     -164.69
  -0.00120833  -0.00000000   0.00000000         -177.75       -0.00        0.00
  -0.00000000  -0.00120833   0.00000000           -0.00     -177.75        0.00
   0.00000000   0.00000000  -0.00094204            0.00        0.00     -138.58


     Writing all to output data dir ./FeAl.save/ :
     XML data file, charge density, pseudopotentials, collected wavefunctions

     init_run     :      7.14s CPU      7.30s WALL (       1 calls)
     electrons    :    472.44s CPU    479.06s WALL (       1 calls)
     forces       :      1.90s CPU      1.94s WALL (       1 calls)
     stress       :      7.87s CPU      7.97s WALL (       1 calls)

     Called by init_run:
     wfcinit      :      5.67s CPU      5.75s WALL (       1 calls)
     potinit      :      0.77s CPU      0.80s WALL (       1 calls)
     hinit0       :      0.37s CPU      0.38s WALL (       1 calls)

     Called by electrons:
     c_bands      :    401.80s CPU    405.05s WALL (      32 calls)
     sum_band     :     50.65s CPU     52.07s WALL (      32 calls)
     v_of_rho     :      1.74s CPU      1.85s WALL (      33 calls)
     newd         :      7.62s CPU      8.59s WALL (      33 calls)
     PAW_pot      :     10.87s CPU     11.60s WALL (      33 calls)
     mix_rho      :      0.20s CPU      0.21s WALL (      32 calls)

     Called by c_bands:
     init_us_2    :      2.67s CPU      2.68s WALL (    3350 calls)
     cegterg      :    387.25s CPU    390.39s WALL (    1600 calls)

     Called by *egterg:
     cdiaghg      :     72.05s CPU     72.30s WALL (    6064 calls)
     h_psi        :    213.35s CPU    215.91s WALL (    6114 calls)
     s_psi        :     19.03s CPU     19.10s WALL (    6114 calls)
     g_psi        :      0.96s CPU      0.96s WALL (    4464 calls)

     Called by h_psi:
     h_psi:calbec :     26.73s CPU     26.86s WALL (    6114 calls)
     vloc_psi     :    166.19s CPU    168.53s WALL (    6114 calls)
     add_vuspsi   :     19.74s CPU     19.82s WALL (    6114 calls)

     General routines
     calbec       :     42.19s CPU     42.39s WALL (    8564 calls)
     fft          :      1.41s CPU      1.58s WALL (     452 calls)
     ffts         :      0.39s CPU      0.39s WALL (      65 calls)
     fftw         :    161.98s CPU    164.19s WALL ( 1016128 calls)
     interpolate  :      0.46s CPU      0.48s WALL (      33 calls)

     Parallel routines

     PWSCF        :    489.99s CPU    505.97s WALL


   This run was terminated on:   2:43:53  27Oct2025            

=------------------------------------------------------------------------------=
   JOB DONE.
=------------------------------------------------------------------------------=
Note: The following floating-point exceptions are signalling: IEEE_UNDERFLOW_FLAG IEEE_DENORMAL
Note: The following floating-point exceptions are signalling: IEEE_UNDERFLOW_FLAG IEEE_DENORMAL
Note: The following floating-point exceptions are signalling: IEEE_UNDERFLOW_FLAG IEEE_DENORMAL
Note: The following floating-point exceptions are signalling: IEEE_UNDERFLOW_FLAG IEEE_DENORMAL
Note: The following floating-point exceptions are signalling: IEEE_UNDERFLOW_FLAG IEEE_DENORMAL
Note: The following floating-point exceptions are signalling: IEEE_UNDERFLOW_FLAG IEEE_DENORMAL
Note: The following floating-point exceptions are signalling: IEEE_UNDERFLOW_FLAG IEEE_DENORMAL
Note: The following floating-point exceptions are signalling: IEEE_UNDERFLOW_FLAG IEEE_DENORMAL
