
     Program PWSCF v.7.4.1 starts on 30Oct2025 at  1: 6:27 

     This program is part of the open-source Quantum ESPRESSO suite
     for quantum simulation of materials; please cite
         "P. Giannozzi et al., J. Phys.:Condens. Matter 21 395502 (2009);
         "P. Giannozzi et al., J. Phys.:Condens. Matter 29 465901 (2017);
         "P. Giannozzi et al., J. Chem. Phys. 152 154105 (2020);
          URL http://www.quantum-espresso.org", 
     in publications or presentations arising from this work. More details at
     http://www.quantum-espresso.org/quote

     Parallel version (MPI), running on     4 processors

     MPI processes distributed on     1 nodes
     4809 MiB available memory on the printing compute node when the environment starts

     Reading input from TiFe8.in

     Current dimensions of program PWSCF are:
     Max number of different atomic species (ntypx) = 10
     Max number of k-points (npk) =  40000
     Max angular momentum in pseudopotentials (lmaxx) =  4
     file Fe.pbe-spn-kjpaw_psl.0.2.1.UPF: wavefunction(s)  3D renormalized

     IMPORTANT: XC functional enforced from input :
     Exchange-correlation= PBE
                           (   1   4   3   4   0   0   0)
     Any further DFT definition will be discarded
     Please, verify this is what you really want

     Message from routine setup:
     using ibrav=0 with symmetry is DISCOURAGED, use correct ibrav instead

     R & G space division:  proc/nbgrp/npool/nimage =       4
     Subspace diagonalization in iterative solution of the eigenvalue problem:
     a serial algorithm will be used


     Parallelization info
     --------------------
     sticks:   dense  smooth     PW     G-vecs:    dense   smooth      PW
     Min         677     271     81                26439     6685    1095
     Max         678     272     82                26442     6688    1098
     Sum        2709    1085    325               105759    26745    4385

     Using Slab Decomposition



     bravais-lattice index     =            0
     lattice parameter (alat)  =       5.5533  a.u.
     unit-cell volume          =     171.2590 (a.u.)^3
     number of atoms/cell      =            2
     number of atomic types    =            2
     number of electrons       =        28.00
     number of Kohn-Sham states=           18
     kinetic-energy cutoff     =     110.0000  Ry
     charge density cutoff     =    1100.0000  Ry
     scf convergence threshold =      1.0E-08
     mixing beta               =       0.7000
     number of iterations used =            8  plain     mixing
     Exchange-correlation= PBE
                           (   1   4   3   4   0   0   0)

     celldm(1)=   5.553300  celldm(2)=   0.000000  celldm(3)=   0.000000
     celldm(4)=   0.000000  celldm(5)=   0.000000  celldm(6)=   0.000000

     crystal axes: (cart. coord. in units of alat)
               a(1) = (   1.000000   0.000000   0.000000 )  
               a(2) = (   0.000000   1.000000   0.000000 )  
               a(3) = (   0.000000   0.000000   1.000000 )  

     reciprocal axes: (cart. coord. in units 2 pi/alat)
               b(1) = (  1.000000  0.000000  0.000000 )  
               b(2) = (  0.000000  1.000000  0.000000 )  
               b(3) = (  0.000000  0.000000  1.000000 )  


     PseudoPot. # 1 for Fe read from file:
     /home/rafi/QE/qe-7.4.1/pseudo/Fe.pbe-spn-kjpaw_psl.0.2.1.UPF
     MD5 check sum: e86618425769142926afa95317d90200
     Pseudo is Projector augmented-wave + core cor, Zval = 16.0
     Generated using "atomic" code by A. Dal Corso  v.5.0.99 svn rev. 10869
     Shape of augmentation charge: PSQ
     Using radial grid of 1191 points,  6 beta functions with: 
                l(1) =   0
                l(2) =   0
                l(3) =   1
                l(4) =   1
                l(5) =   2
                l(6) =   2
     Q(r) pseudized with 0 coefficients 


     PseudoPot. # 2 for Ti read from file:
     /home/rafi/QE/qe-7.4.1/pseudo/ti_pbe_v1.4.uspp.F.UPF
     MD5 check sum: 88a00a6731bd790ddea75d31a80cb452
     Pseudo is Ultrasoft + core correction, Zval = 12.0
     Generated by new atomic code, or converted to UPF format
     Using radial grid of  851 points,  6 beta functions with: 
                l(1) =   0
                l(2) =   0
                l(3) =   1
                l(4) =   1
                l(5) =   2
                l(6) =   2
     Q(r) pseudized with  6 coefficients,  rinner =    1.000   1.000   1.000
                                                       1.000   1.000

     atomic species   valence    mass     pseudopotential
     Fe               16.00    55.84500     Fe( 1.00)
     Ti               12.00    47.86700     Ti( 1.00)

     48 Sym. Ops., with inversion, found



   Cartesian axes

     site n.     atom                  positions (alat units)
         1        Fe     tau(   1) = (   0.5000000   0.5000000   0.5000000  )
         2        Ti     tau(   2) = (   0.0000000   0.0000000   0.0000000  )

     number of k points=    56  Marzari-Vanderbilt smearing, width (Ry)=  0.0050
                       cart. coord. in units 2pi/alat
        k(    1) = (   0.0000000   0.0000000   0.0000000), wk =   0.0020000
        k(    2) = (   0.0000000   0.0000000   0.1000000), wk =   0.0120000
        k(    3) = (   0.0000000   0.0000000   0.2000000), wk =   0.0120000
        k(    4) = (   0.0000000   0.0000000   0.3000000), wk =   0.0120000
        k(    5) = (   0.0000000   0.0000000   0.4000000), wk =   0.0120000
        k(    6) = (   0.0000000   0.0000000  -0.5000000), wk =   0.0060000
        k(    7) = (   0.0000000   0.1000000   0.1000000), wk =   0.0240000
        k(    8) = (   0.0000000   0.1000000   0.2000000), wk =   0.0480000
        k(    9) = (   0.0000000   0.1000000   0.3000000), wk =   0.0480000
        k(   10) = (   0.0000000   0.1000000   0.4000000), wk =   0.0480000
        k(   11) = (   0.0000000   0.1000000  -0.5000000), wk =   0.0240000
        k(   12) = (   0.0000000   0.2000000   0.2000000), wk =   0.0240000
        k(   13) = (   0.0000000   0.2000000   0.3000000), wk =   0.0480000
        k(   14) = (   0.0000000   0.2000000   0.4000000), wk =   0.0480000
        k(   15) = (   0.0000000   0.2000000  -0.5000000), wk =   0.0240000
        k(   16) = (   0.0000000   0.3000000   0.3000000), wk =   0.0240000
        k(   17) = (   0.0000000   0.3000000   0.4000000), wk =   0.0480000
        k(   18) = (   0.0000000   0.3000000  -0.5000000), wk =   0.0240000
        k(   19) = (   0.0000000   0.4000000   0.4000000), wk =   0.0240000
        k(   20) = (   0.0000000   0.4000000  -0.5000000), wk =   0.0240000
        k(   21) = (   0.0000000  -0.5000000  -0.5000000), wk =   0.0060000
        k(   22) = (   0.1000000   0.1000000   0.1000000), wk =   0.0160000
        k(   23) = (   0.1000000   0.1000000   0.2000000), wk =   0.0480000
        k(   24) = (   0.1000000   0.1000000   0.3000000), wk =   0.0480000
        k(   25) = (   0.1000000   0.1000000   0.4000000), wk =   0.0480000
        k(   26) = (   0.1000000   0.1000000  -0.5000000), wk =   0.0240000
        k(   27) = (   0.1000000   0.2000000   0.2000000), wk =   0.0480000
        k(   28) = (   0.1000000   0.2000000   0.3000000), wk =   0.0960000
        k(   29) = (   0.1000000   0.2000000   0.4000000), wk =   0.0960000
        k(   30) = (   0.1000000   0.2000000  -0.5000000), wk =   0.0480000
        k(   31) = (   0.1000000   0.3000000   0.3000000), wk =   0.0480000
        k(   32) = (   0.1000000   0.3000000   0.4000000), wk =   0.0960000
        k(   33) = (   0.1000000   0.3000000  -0.5000000), wk =   0.0480000
        k(   34) = (   0.1000000   0.4000000   0.4000000), wk =   0.0480000
        k(   35) = (   0.1000000   0.4000000  -0.5000000), wk =   0.0480000
        k(   36) = (   0.1000000  -0.5000000  -0.5000000), wk =   0.0120000
        k(   37) = (   0.2000000   0.2000000   0.2000000), wk =   0.0160000
        k(   38) = (   0.2000000   0.2000000   0.3000000), wk =   0.0480000
        k(   39) = (   0.2000000   0.2000000   0.4000000), wk =   0.0480000
        k(   40) = (   0.2000000   0.2000000  -0.5000000), wk =   0.0240000
        k(   41) = (   0.2000000   0.3000000   0.3000000), wk =   0.0480000
        k(   42) = (   0.2000000   0.3000000   0.4000000), wk =   0.0960000
        k(   43) = (   0.2000000   0.3000000  -0.5000000), wk =   0.0480000
        k(   44) = (   0.2000000   0.4000000   0.4000000), wk =   0.0480000
        k(   45) = (   0.2000000   0.4000000  -0.5000000), wk =   0.0480000
        k(   46) = (   0.2000000  -0.5000000  -0.5000000), wk =   0.0120000
        k(   47) = (   0.3000000   0.3000000   0.3000000), wk =   0.0160000
        k(   48) = (   0.3000000   0.3000000   0.4000000), wk =   0.0480000
        k(   49) = (   0.3000000   0.3000000  -0.5000000), wk =   0.0240000
        k(   50) = (   0.3000000   0.4000000   0.4000000), wk =   0.0480000
        k(   51) = (   0.3000000   0.4000000  -0.5000000), wk =   0.0480000
        k(   52) = (   0.3000000  -0.5000000  -0.5000000), wk =   0.0120000
        k(   53) = (   0.4000000   0.4000000   0.4000000), wk =   0.0160000
        k(   54) = (   0.4000000   0.4000000  -0.5000000), wk =   0.0240000
        k(   55) = (   0.4000000  -0.5000000  -0.5000000), wk =   0.0120000
        k(   56) = (  -0.5000000  -0.5000000  -0.5000000), wk =   0.0020000

     Dense  grid:   105759 G-vectors     FFT dimensions: (  60,  60,  60)

     Smooth grid:    26745 G-vectors     FFT dimensions: (  40,  40,  40)

     Estimated max dynamical RAM per process >     115.29 MB

     Estimated total dynamical RAM >     461.16 MB

     Check: negative core charge=   -0.000006

     Initial potential from superposition of free atoms

     starting charge      26.9995, renormalised to      28.0000

     negative rho (up, down):  1.440E-03 0.000E+00
     Starting wfcs are   23 randomized atomic wfcs
     Checking if some PAW data can be deallocated... 

     total cpu time spent up to now is        1.6 secs

     Self-consistent Calculation

     iteration #  1     ecut=   110.00 Ry     beta= 0.70
     Davidson diagonalization with overlap
     ethr =  1.00E-02,  avg # of iterations =  2.2

     negative rho (up, down):  1.203E-04 0.000E+00

     total cpu time spent up to now is        4.4 secs

     total energy              =    -434.90352165 Ry
     estimated scf accuracy    <      17.45125454 Ry

     iteration #  2     ecut=   110.00 Ry     beta= 0.70
     Davidson diagonalization with overlap
     ethr =  1.00E-02,  avg # of iterations =  6.1

     negative rho (up, down):  4.011E-05 0.000E+00

     total cpu time spent up to now is        9.0 secs

     WARNING: integrated charge=    28.00013577, expected=    28.00000000

     total energy              =    -448.53466333 Ry
     estimated scf accuracy    <      65.96419205 Ry

     iteration #  3     ecut=   110.00 Ry     beta= 0.70
     Davidson diagonalization with overlap
     ethr =  1.00E-02,  avg # of iterations =  3.2

     negative rho (up, down):  2.401E-04 0.000E+00

     total cpu time spent up to now is       12.3 secs

     WARNING: integrated charge=    28.00001868, expected=    28.00000000

     total energy              =    -448.58123441 Ry
     estimated scf accuracy    <      16.77333703 Ry

     iteration #  4     ecut=   110.00 Ry     beta= 0.70
     Davidson diagonalization with overlap
     ethr =  1.00E-02,  avg # of iterations =  2.1

     negative rho (up, down):  2.675E-04 0.000E+00

     total cpu time spent up to now is       15.1 secs

     WARNING: integrated charge=    28.00001997, expected=    28.00000000

     total energy              =    -449.10260650 Ry
     estimated scf accuracy    <       4.79716559 Ry

     iteration #  5     ecut=   110.00 Ry     beta= 0.70
     Davidson diagonalization with overlap
     ethr =  1.00E-02,  avg # of iterations =  1.0

     negative rho (up, down):  2.943E-04 0.000E+00

     total cpu time spent up to now is       17.4 secs

     WARNING: integrated charge=    28.00002365, expected=    28.00000000

     total energy              =    -449.11554471 Ry
     estimated scf accuracy    <       4.35039659 Ry

     iteration #  6     ecut=   110.00 Ry     beta= 0.70
     Davidson diagonalization with overlap
     ethr =  1.00E-02,  avg # of iterations =  1.0

     negative rho (up, down):  1.135E-03 0.000E+00

     total cpu time spent up to now is       19.6 secs

     total energy              =    -447.86905088 Ry
     estimated scf accuracy    <       4.53292152 Ry

     iteration #  7     ecut=   110.00 Ry     beta= 0.70
     Davidson diagonalization with overlap
     ethr =  1.00E-02,  avg # of iterations =  3.4

     negative rho (up, down):  1.009E-03 0.000E+00

     total cpu time spent up to now is       22.4 secs

     total energy              =    -448.58300213 Ry
     estimated scf accuracy    <       4.01745639 Ry

     iteration #  8     ecut=   110.00 Ry     beta= 0.70
     Davidson diagonalization with overlap
     ethr =  1.00E-02,  avg # of iterations =  1.0

     negative rho (up, down):  7.496E-04 0.000E+00

     total cpu time spent up to now is       24.7 secs

     WARNING: integrated charge=    28.00000837, expected=    28.00000000

     total energy              =    -448.46547444 Ry
     estimated scf accuracy    <       1.25054239 Ry

     iteration #  9     ecut=   110.00 Ry     beta= 0.70
     Davidson diagonalization with overlap
     ethr =  4.47E-03,  avg # of iterations =  1.6

     negative rho (up, down):  7.487E-04 0.000E+00

     total cpu time spent up to now is       27.0 secs

     WARNING: integrated charge=    28.00000841, expected=    28.00000000

     total energy              =    -448.59804457 Ry
     estimated scf accuracy    <       0.14526216 Ry

     iteration # 10     ecut=   110.00 Ry     beta= 0.70
     Davidson diagonalization with overlap
     ethr =  5.19E-04,  avg # of iterations =  1.8

     negative rho (up, down):  7.490E-04 0.000E+00

     total cpu time spent up to now is       29.4 secs

     WARNING: integrated charge=    28.00000657, expected=    28.00000000

     total energy              =    -448.61223732 Ry
     estimated scf accuracy    <       0.15844687 Ry

     iteration # 11     ecut=   110.00 Ry     beta= 0.70
     Davidson diagonalization with overlap
     ethr =  5.19E-04,  avg # of iterations =  1.4

     negative rho (up, down):  7.660E-04 0.000E+00

     total cpu time spent up to now is       31.8 secs

     WARNING: integrated charge=    28.00000647, expected=    28.00000000

     total energy              =    -448.60236533 Ry
     estimated scf accuracy    <       0.36872088 Ry

     iteration # 12     ecut=   110.00 Ry     beta= 0.70
     Davidson diagonalization with overlap
     ethr =  5.19E-04,  avg # of iterations =  1.0

     negative rho (up, down):  7.602E-04 0.000E+00

     total cpu time spent up to now is       34.0 secs

     WARNING: integrated charge=    28.00000818, expected=    28.00000000

     total energy              =    -448.61748426 Ry
     estimated scf accuracy    <       0.20743374 Ry

     iteration # 13     ecut=   110.00 Ry     beta= 0.70
     Davidson diagonalization with overlap
     ethr =  5.19E-04,  avg # of iterations =  1.1

     negative rho (up, down):  1.361E-03 0.000E+00

     total cpu time spent up to now is       36.4 secs

     total energy              =    -448.54278204 Ry
     estimated scf accuracy    <       0.46734971 Ry

     iteration # 14     ecut=   110.00 Ry     beta= 0.70
     Davidson diagonalization with overlap
     ethr =  5.19E-04,  avg # of iterations =  4.4

     negative rho (up, down):  1.338E-03 0.000E+00

     total cpu time spent up to now is       39.6 secs

     WARNING: integrated charge=    28.00000336, expected=    28.00000000

     total energy              =    -448.61395566 Ry
     estimated scf accuracy    <       0.19468066 Ry

     iteration # 15     ecut=   110.00 Ry     beta= 0.70
     Davidson diagonalization with overlap
     ethr =  5.19E-04,  avg # of iterations =  1.0

     negative rho (up, down):  1.012E-03 0.000E+00

     total cpu time spent up to now is       41.9 secs

     total energy              =    -448.55687738 Ry
     estimated scf accuracy    <       0.14322193 Ry

     iteration # 16     ecut=   110.00 Ry     beta= 0.70
     Davidson diagonalization with overlap
     ethr =  5.12E-04,  avg # of iterations =  3.6

     negative rho (up, down):  1.130E-03 0.000E+00

     total cpu time spent up to now is       44.6 secs

     total energy              =    -448.58113104 Ry
     estimated scf accuracy    <       0.31221760 Ry

     iteration # 17     ecut=   110.00 Ry     beta= 0.70
     Davidson diagonalization with overlap
     ethr =  5.12E-04,  avg # of iterations =  1.1

     negative rho (up, down):  1.043E-03 0.000E+00

     total cpu time spent up to now is       46.8 secs

     total energy              =    -448.59398477 Ry
     estimated scf accuracy    <       0.04234055 Ry

     iteration # 18     ecut=   110.00 Ry     beta= 0.70
     Davidson diagonalization with overlap
     ethr =  1.51E-04,  avg # of iterations =  1.4

     negative rho (up, down):  8.723E-04 0.000E+00

     total cpu time spent up to now is       49.2 secs

     WARNING: integrated charge=    28.00001292, expected=    28.00000000

     total energy              =    -448.59852966 Ry
     estimated scf accuracy    <       0.12700370 Ry

     iteration # 19     ecut=   110.00 Ry     beta= 0.70
     Davidson diagonalization with overlap
     ethr =  1.51E-04,  avg # of iterations =  1.0

     negative rho (up, down):  8.373E-04 0.000E+00

     total cpu time spent up to now is       51.5 secs

     total energy              =    -448.58634869 Ry
     estimated scf accuracy    <       0.22551701 Ry

     iteration # 20     ecut=   110.00 Ry     beta= 0.70
     Davidson diagonalization with overlap
     ethr =  1.51E-04,  avg # of iterations =  1.0

     negative rho (up, down):  1.052E-03 0.000E+00

     total cpu time spent up to now is       53.8 secs

     WARNING: integrated charge=    28.00000494, expected=    28.00000000

     total energy              =    -448.58048060 Ry
     estimated scf accuracy    <       0.05713125 Ry

     iteration # 21     ecut=   110.00 Ry     beta= 0.70
     Davidson diagonalization with overlap
     ethr =  1.51E-04,  avg # of iterations =  2.9

     negative rho (up, down):  1.015E-03 0.000E+00

     total cpu time spent up to now is       56.4 secs

     total energy              =    -448.58583718 Ry
     estimated scf accuracy    <       0.00222763 Ry

     iteration # 22     ecut=   110.00 Ry     beta= 0.70
     Davidson diagonalization with overlap
     ethr =  7.96E-06,  avg # of iterations =  3.2

     negative rho (up, down):  9.695E-04 0.000E+00

     total cpu time spent up to now is       59.1 secs

     total energy              =    -448.58605661 Ry
     estimated scf accuracy    <       0.00034005 Ry

     iteration # 23     ecut=   110.00 Ry     beta= 0.70
     Davidson diagonalization with overlap
     ethr =  1.21E-06,  avg # of iterations =  3.0

     negative rho (up, down):  9.634E-04 0.000E+00

     total cpu time spent up to now is       61.8 secs

     total energy              =    -448.58609420 Ry
     estimated scf accuracy    <       0.00008565 Ry

     iteration # 24     ecut=   110.00 Ry     beta= 0.70
     Davidson diagonalization with overlap
     ethr =  3.06E-07,  avg # of iterations =  3.5

     negative rho (up, down):  9.691E-04 0.000E+00

     total cpu time spent up to now is       64.5 secs

     total energy              =    -448.58610266 Ry
     estimated scf accuracy    <       0.00012477 Ry

     iteration # 25     ecut=   110.00 Ry     beta= 0.70
     Davidson diagonalization with overlap
     ethr =  3.06E-07,  avg # of iterations =  1.8

     negative rho (up, down):  9.685E-04 0.000E+00

     total cpu time spent up to now is       66.9 secs

     total energy              =    -448.58611375 Ry
     estimated scf accuracy    <       0.00001278 Ry

     iteration # 26     ecut=   110.00 Ry     beta= 0.70
     Davidson diagonalization with overlap
     ethr =  4.56E-08,  avg # of iterations =  2.0

     negative rho (up, down):  9.683E-04 0.000E+00

     total cpu time spent up to now is       69.4 secs

     total energy              =    -448.58611524 Ry
     estimated scf accuracy    <       0.00000037 Ry

     iteration # 27     ecut=   110.00 Ry     beta= 0.70
     Davidson diagonalization with overlap
     ethr =  1.31E-09,  avg # of iterations =  4.7

     negative rho (up, down):  9.683E-04 0.000E+00

     total cpu time spent up to now is       72.6 secs

     total energy              =    -448.58611544 Ry
     estimated scf accuracy    <       0.00000019 Ry

     iteration # 28     ecut=   110.00 Ry     beta= 0.70
     Davidson diagonalization with overlap
     ethr =  6.71E-10,  avg # of iterations =  1.6

     negative rho (up, down):  9.684E-04 0.000E+00

     total cpu time spent up to now is       74.9 secs

     total energy              =    -448.58611546 Ry
     estimated scf accuracy    <       0.00000002 Ry

     iteration # 29     ecut=   110.00 Ry     beta= 0.70
     Davidson diagonalization with overlap
     ethr =  8.89E-11,  avg # of iterations =  2.4

     negative rho (up, down):  9.683E-04 0.000E+00

     total cpu time spent up to now is       77.4 secs

     End of self-consistent calculation

          k = 0.0000 0.0000 0.0000 (  3287 PWs)   bands (ev):

   -69.2087 -39.1185 -35.2700 -35.2700 -35.2700 -15.2144 -15.2144 -15.2144
    10.1531  13.8672  13.8672  16.6596  16.6596  16.6596  19.0112  19.0112
    20.9602  20.9602

          k = 0.0000 0.0000 0.1000 (  3335 PWs)   bands (ev):

   -69.2084 -39.1159 -35.2730 -35.2696 -35.2696 -15.2497 -15.2123 -15.2123
    10.3620  13.9677  13.9750  16.6442  16.6442  16.7051  18.8837  19.0586
    20.6603  20.6603

          k = 0.0000 0.0000 0.2000 (  3347 PWs)   bands (ev):

   -69.2076 -39.1092 -35.2809 -35.2684 -35.2684 -15.3412 -15.2068 -15.2068
    10.9636  14.2451  14.2600  16.6109  16.6109  16.8305  18.5184  19.1562
    19.9923  19.9923

          k = 0.0000 0.0000 0.3000 (  3358 PWs)   bands (ev):

   -69.2065 -39.1010 -35.2906 -35.2669 -35.2669 -15.4529 -15.1999 -15.1999
    11.8813  14.5155  14.7123  16.5873  16.5873  17.0008  17.9718  19.1421
    19.3005  19.3005

          k = 0.0000 0.0000 0.4000 (  3338 PWs)   bands (ev):

   -69.2056 -39.0943 -35.2983 -35.2656 -35.2656 -15.5419 -15.1944 -15.1944
    12.9678  14.5184  15.2398  16.5883  16.5883  17.1548  17.3650  18.7966
    18.7966  18.8385

          k = 0.0000 0.0000-0.5000 (  3362 PWs)   bands (ev):

   -69.2053 -39.0918 -35.3013 -35.2652 -35.2652 -15.5757 -15.1923 -15.1923
    13.8516  14.0906  15.5492  16.5954  16.5954  17.0247  17.2186  18.6020
    18.6105  18.6105

          k = 0.0000 0.1000 0.1000 (  3321 PWs)   bands (ev):

   -69.2081 -39.1132 -35.2742 -35.2713 -35.2691 -15.2509 -15.2435 -15.2101
    10.5657  14.0615  14.0843  16.5454  16.6176  16.8170  18.8694  19.0239
    20.3431  20.3614

          k = 0.0000 0.1000 0.2000 (  3330 PWs)   bands (ev):

   -69.2072 -39.1060 -35.2816 -35.2714 -35.2679 -15.3381 -15.2402 -15.2043
    11.1509  14.3122  14.3777  16.4522  16.5548  16.9415  18.5983  19.1099
    19.7220  19.7872

          k = 0.0000 0.1000 0.3000 (  3342 PWs)   bands (ev):

   -69.2061 -39.0971 -35.2914 -35.2707 -35.2664 -15.4482 -15.2323 -15.1971
    12.0371  14.5820  14.7892  16.4112  16.4882  16.9997  18.1497  18.9317
    19.3038  19.3267

          k = 0.0000 0.1000 0.4000 (  3343 PWs)   bands (ev):

   -69.2053 -39.0900 -35.2994 -35.2700 -35.2652 -15.5362 -15.2258 -15.1912
    13.0729  14.5705  15.2638  16.4260  16.4340  16.9485  17.6905  18.4890
    19.0522  19.1731

          k = 0.0000 0.1000-0.5000 (  3352 PWs)   bands (ev):

   -69.2049 -39.0872 -35.3024 -35.2698 -35.2648 -15.5696 -15.2234 -15.1890
    13.8871  14.1693  15.5386  16.3628  16.4682  16.8873  17.4909  18.2967
    18.9940  19.0344

          k = 0.0000 0.2000 0.2000 (  3335 PWs)   bands (ev):

   -69.2064 -39.0975 -35.2850 -35.2775 -35.2668 -15.3380 -15.3188 -15.1976
    11.6809  14.4576  14.7148  16.2473  16.4375  16.9749  18.6927  19.0694
    19.1617  19.5095

          k = 0.0000 0.2000 0.3000 (  3330 PWs)   bands (ev):

   -69.2053 -39.0871 -35.2938 -35.2804 -35.2653 -15.4363 -15.3161 -15.1895
    12.4550  14.5841  15.1529  16.1167  16.3546  16.8038  18.5181  18.6542
    19.2403  19.4499

          k = 0.0000 0.2000 0.4000 (  3337 PWs)   bands (ev):

   -69.2044 -39.0786 -35.3022 -35.2815 -35.2642 -15.5212 -15.3074 -15.1828
    13.2981  14.5092  15.5473  16.1011  16.3938  16.5250  18.2066  18.3882
    19.3833  19.5784

          k = 0.0000 0.2000-0.5000 (  3340 PWs)   bands (ev):

   -69.2041 -39.0753 -35.3054 -35.2819 -35.2638 -15.5535 -15.3040 -15.1803
    13.8607  14.2423  15.7163  16.1629  16.3442  16.4708  18.1420  18.1923
    19.4150  19.6778

          k = 0.0000 0.3000 0.3000 (  3329 PWs)   bands (ev):

   -69.2042 -39.0746 -35.2984 -35.2908 -35.2640 -15.4295 -15.4105 -15.1801
    12.9890  14.4731  15.6950  15.8845  16.3992  16.4422  18.5205  18.8392
    19.1306  19.7650

          k = 0.0000 0.3000 0.4000 (  3348 PWs)   bands (ev):

   -69.2034 -39.0644 -35.3058 -35.2956 -35.2629 -15.5027 -15.4070 -15.1724
    13.4476  14.2812  15.7856  16.0916  16.1605  16.7679  18.3520  18.8594
    19.3429  20.1180

          k = 0.0000 0.3000-0.5000 (  3326 PWs)   bands (ev):

   -69.2030 -39.0606 -35.3092 -35.2968 -35.2625 -15.5335 -15.4026 -15.1695
    13.6622  14.1447  15.8271  15.8861  16.3139  17.1721  18.0907  18.8625
    19.5232  20.3183

          k = 0.0000 0.4000 0.4000 (  3339 PWs)   bands (ev):

   -69.2025 -39.0530 -35.3093 -35.3064 -35.2619 -15.4907 -15.4836 -15.1640
    13.4638  14.0817  15.5979  15.7583  16.8931  17.3510  18.5857  19.0576
    19.2682  20.5478

          k = 0.0000 0.4000-0.5000 (  3330 PWs)   bands (ev):

   -69.2022 -39.0486 -35.3123 -35.3089 -35.2615 -15.5174 -15.4813 -15.1608
    13.4499  14.0076  15.5800  15.5914  17.1832  18.0960  18.1435  19.1992
    19.3341  20.7684

          k = 0.0000-0.5000-0.5000 (  3348 PWs)   bands (ev):

   -69.2019 -39.0440 -35.3135 -35.3135 -35.2611 -15.5112 -15.5112 -15.1575
    13.3650  13.9512  15.4903  15.4903  17.7654  18.1971  18.7162  18.7162
    19.4579  20.9307

          k = 0.1000 0.1000 0.1000 (  3308 PWs)   bands (ev):

   -69.2078 -39.1103 -35.2737 -35.2737 -35.2698 -15.2512 -15.2413 -15.2413
    10.7653  14.1726  14.1726  16.5162  16.5162  16.8989  18.9342  18.9342
    19.8713  20.6344

          k = 0.1000 0.1000 0.2000 (  3336 PWs)   bands (ev):

   -69.2069 -39.1027 -35.2818 -35.2724 -35.2699 -15.3348 -15.2394 -15.2357
    11.3368  14.4268  14.4478  16.3883  16.4402  16.9561  18.6781  19.0684
    19.4059  19.9646

          k = 0.1000 0.1000 0.3000 (  3349 PWs)   bands (ev):

   -69.2058 -39.0933 -35.2920 -35.2709 -35.2698 -15.4437 -15.2301 -15.2287
    12.1965  14.7061  14.8115  16.3376  16.3381  16.8864  18.3033  18.9280
    19.2893  19.3771

          k = 0.1000 0.1000 0.4000 (  3341 PWs)   bands (ev):

   -69.2050 -39.0857 -35.3002 -35.2697 -35.2696 -15.5308 -15.2230 -15.2224
    13.1892  14.6625  15.2443  16.2078  16.4173  16.7665  17.9267  18.5947
    18.8168  19.5641

          k = 0.1000 0.1000-0.5000 (  3352 PWs)   bands (ev):

   -69.2046 -39.0828 -35.3034 -35.2696 -35.2692 -15.5638 -15.2208 -15.2195
    13.9492  14.2669  15.4940  16.0998  16.5426  16.6872  17.7572  18.3703
    18.6486  19.6887

          k = 0.1000 0.2000 0.2000 (  3336 PWs)   bands (ev):

   -69.2060 -39.0940 -35.2845 -35.2783 -35.2702 -15.3338 -15.3165 -15.2304
    11.8619  14.5873  14.7669  16.2009  16.3094  16.8244  18.7769  19.0441
    19.2044  19.6790

          k = 0.1000 0.2000 0.3000 (  3324 PWs)   bands (ev):

   -69.2050 -39.0832 -35.2938 -35.2804 -35.2694 -15.4321 -15.3132 -15.2216
    12.6246  14.7338  15.1555  16.0619  16.2161  16.5701  18.6393  18.8361
    19.2257  19.5767

          k = 0.1000 0.2000 0.4000 (  3337 PWs)   bands (ev):

   -69.2041 -39.0745 -35.3026 -35.2812 -35.2686 -15.5166 -15.3045 -15.2145
    13.4453  14.6572  15.4532  15.9832  16.2799  16.4360  18.4002  18.4744
    19.0332  20.0426

          k = 0.1000 0.2000-0.5000 (  3350 PWs)   bands (ev):

   -69.2038 -39.0712 -35.3060 -35.2814 -35.2683 -15.5487 -15.3011 -15.2117
    13.9843  14.3815  15.5814  15.9417  16.2958  16.5311  18.2041  18.3560
    18.8909  20.5566

          k = 0.1000 0.3000 0.3000 (  3343 PWs)   bands (ev):

   -69.2039 -39.0707 -35.2979 -35.2911 -35.2683 -15.4250 -15.4082 -15.2120
    13.1682  14.6235  15.6875  15.8414  16.2025  16.2539  18.6257  18.9933
    19.0882  19.9876

          k = 0.1000 0.3000 0.4000 (  3342 PWs)   bands (ev):

   -69.2031 -39.0606 -35.3056 -35.2953 -35.2673 -15.4990 -15.4043 -15.2042
    13.6190  14.4310  15.7341  15.8963  16.1729  16.6027  18.3887  18.9388
    19.1384  20.5296

          k = 0.1000 0.3000-0.5000 (  3334 PWs)   bands (ev):

   -69.2027 -39.0567 -35.3092 -35.2963 -35.2670 -15.5299 -15.3999 -15.2013
    13.8181  14.2995  15.7535  15.7671  16.2729  17.0253  18.1123  18.9943
    19.0305  20.7101

          k = 0.1000 0.4000 0.4000 (  3337 PWs)   bands (ev):

   -69.2022 -39.0493 -35.3087 -35.3061 -35.2663 -15.4876 -15.4812 -15.1960
    13.6331  14.2342  15.5661  15.6950  16.8191  17.1325  18.4669  18.8177
    19.3728  20.8231

          k = 0.1000 0.4000-0.5000 (  3332 PWs)   bands (ev):

   -69.2019 -39.0450 -35.3118 -35.3083 -35.2659 -15.5147 -15.4790 -15.1928
    13.6140  14.1625  15.5462  15.5534  17.0828  17.8055  18.0883  18.7796
    19.4429  20.9291

          k = 0.1000-0.5000-0.5000 (  3340 PWs)   bands (ev):

   -69.2016 -39.0405 -35.3129 -35.3129 -35.2655 -15.5089 -15.5089 -15.1896
    13.5309  14.1054  15.4649  15.4649  17.7691  18.1982  18.2052  18.2052
    19.5622  21.5827

          k = 0.2000 0.2000 0.2000 (  3338 PWs)   bands (ev):

   -69.2052 -39.0847 -35.2831 -35.2831 -35.2763 -15.3276 -15.3106 -15.3106
    12.3685  14.9111  14.9111  16.0808  16.0808  16.4314  18.9671  18.9671
    19.4621  19.9328

          k = 0.2000 0.2000 0.3000 (  3331 PWs)   bands (ev):

   -69.2041 -39.0731 -35.2941 -35.2815 -35.2789 -15.4214 -15.3071 -15.3033
    13.0842  15.1121  15.1616  15.9292  15.9532  16.1235  18.8452  18.9689
    19.3186  19.9273

          k = 0.2000 0.2000 0.4000 (  3353 PWs)   bands (ev):

   -69.2033 -39.0638 -35.3037 -35.2803 -35.2801 -15.5045 -15.2974 -15.2959
    13.8040  14.9411  15.3131  15.7851  16.0494  16.2664  18.5591  18.7089
    18.9272  20.4842

          k = 0.2000 0.2000-0.5000 (  3338 PWs)   bands (ev):

   -69.2029 -39.0602 -35.3074 -35.2808 -35.2796 -15.5360 -15.2951 -15.2915
    14.2311  14.6416  15.4189  15.7054  16.1280  16.4993  18.2215  18.6362
    18.8079  20.5936

          k = 0.2000 0.3000 0.3000 (  3331 PWs)   bands (ev):

   -69.2031 -39.0606 -35.2964 -35.2919 -35.2795 -15.4134 -15.4021 -15.2951
    13.6647  15.0190  15.6533  15.7399  15.7731  15.8883  18.7370  18.9281
    19.4201  20.1876

          k = 0.2000 0.3000 0.4000 (  3333 PWs)   bands (ev):

   -69.2022 -39.0505 -35.3052 -35.2944 -35.2789 -15.4895 -15.3969 -15.2869
    14.0908  14.7993  15.5837  15.6410  15.9953  16.2832  18.4331  18.6944
    19.4000  20.5241

          k = 0.2000 0.3000-0.5000 (  3330 PWs)   bands (ev):

   -69.2019 -39.0466 -35.3092 -35.2949 -35.2786 -15.5204 -15.3930 -15.2837
    14.2384  14.6710  15.5420  15.6097  16.0959  16.6864  18.1155  18.5991
    19.3715  20.6977

          k = 0.2000 0.4000 0.4000 (  3327 PWs)   bands (ev):

   -69.2014 -39.0397 -35.3071 -35.3053 -35.2778 -15.4794 -15.4752 -15.2789
    14.1110  14.6222  15.4919  15.5671  16.5809  16.5877  18.3639  18.4146
    19.7070  20.7843

          k = 0.2000 0.4000-0.5000 (  3338 PWs)   bands (ev):

   -69.2010 -39.0356 -35.3106 -35.3067 -35.2774 -15.5077 -15.4727 -15.2759
    14.0770  14.5600  15.4704  15.4746  16.7323  17.1355  18.0227  18.3744
    19.7736  20.9840

          k = 0.2000-0.5000-0.5000 (  3324 PWs)   bands (ev):

   -69.2007 -39.0313 -35.3112 -35.3112 -35.2769 -15.5029 -15.5029 -15.2729
    14.0020  14.5079  15.4087  15.4087  17.3550  17.3550  17.7789  18.1835
    19.8818  21.2327

          k = 0.3000 0.3000 0.3000 (  3329 PWs)   bands (ev):

   -69.2020 -39.0481 -35.2945 -35.2945 -35.2917 -15.4009 -15.3946 -15.3946
    14.3117  15.2847  15.5696  15.5696  15.6454  15.6454  18.6743  18.6743
    19.9781  19.9781

          k = 0.3000 0.3000 0.4000 (  3321 PWs)   bands (ev):

   -69.2012 -39.0379 -35.3049 -35.2933 -35.2930 -15.4779 -15.3885 -15.3870
    14.6596  15.0420  15.4874  15.5724  15.7252  16.0898  18.3378  18.4736
    19.9116  20.5340

          k = 0.3000 0.3000-0.5000 (  3326 PWs)   bands (ev):

   -69.2009 -39.0341 -35.3092 -35.2937 -35.2925 -15.5086 -15.3862 -15.3826
    14.6721  14.9571  15.4582  15.5393  15.8956  16.4313  18.0384  18.4038
    19.8977  20.7768

          k = 0.3000 0.4000 0.4000 (  3323 PWs)   bands (ev):

   -69.2003 -39.0278 -35.3051 -35.3044 -35.2921 -15.4693 -15.4677 -15.3803
    14.7734  15.0338  15.4276  15.5518  16.0098  16.2112  18.1570  18.2610
    20.2451  20.8076

          k = 0.3000 0.4000-0.5000 (  3332 PWs)   bands (ev):

   -69.2000 -39.0239 -35.3092 -35.3047 -35.2916 -15.4991 -15.4649 -15.3774
    14.7242  14.9991  15.4337  15.4492  16.2191  16.5013  17.9311  18.2044
    20.3030  21.0378

          k = 0.3000-0.5000-0.5000 (  3332 PWs)   bands (ev):

   -69.1997 -39.0200 -35.3092 -35.3092 -35.2911 -15.4954 -15.4954 -15.3748
    14.6884  14.9967  15.3722  15.3722  16.5970  16.5970  17.7911  18.1053
    20.4066  21.2582

          k = 0.4000 0.4000 0.4000 (  3337 PWs)   bands (ev):

   -69.1995 -39.0181 -35.3037 -35.3035 -35.3035 -15.4616 -15.4616 -15.4608
    15.0744  15.4323  15.4323  15.6549  15.8429  15.8429  18.0463  18.0463
    20.8390  20.8390

          k = 0.4000 0.4000-0.5000 (  3336 PWs)   bands (ev):

   -69.1992 -39.0144 -35.3080 -35.3034 -35.3029 -15.4920 -15.4593 -15.4579
    15.1915  15.2362  15.5117  15.6251  15.8265  16.1007  17.8751  18.0173
    20.8521  21.1225

          k = 0.4000-0.5000-0.5000 (  3332 PWs)   bands (ev):

   -69.1989 -39.0108 -35.3075 -35.3075 -35.3025 -15.4894 -15.4894 -15.4562
    15.3775  15.3964  15.4137  15.4137  16.0287  16.0287  17.8009  17.9325
    20.9987  21.2789

          k =-0.5000-0.5000-0.5000 (  3328 PWs)   bands (ev):

   -69.1985 -39.0073 -35.3069 -35.3069 -35.3069 -15.4870 -15.4870 -15.4870
    15.5180  15.5180  15.5180  15.7406  15.7406  15.7406  17.8047  17.8047
    21.2868  21.2868

     the Fermi energy is    17.7497 ev

!    total energy              =    -448.58611546 Ry
     estimated scf accuracy    <          1.3E-09 Ry
     smearing contrib. (-TS)   =      -0.00005114 Ry
     internal energy E=F+TS    =    -448.58606432 Ry

     The total energy is F=E-TS. E is the sum of the following terms:
     one-electron contribution =    -151.36119896 Ry
     hartree contribution      =      91.64029713 Ry
     xc contribution           =     -52.89089817 Ry
     ewald contribution        =    -259.82070277 Ry
     one-center paw contrib.   =     -76.15356155 Ry

     convergence has been achieved in  29 iterations

     negative rho (up, down):  9.683E-04 0.000E+00

     Forces acting on atoms (cartesian axes, Ry/au):

     atom    1 type  1   force =     0.00000000    0.00000000    0.00000000
     atom    2 type  2   force =     0.00000000    0.00000000    0.00000000

     Total force =     0.000000     Total SCF correction =     0.000000


     Computing stress (Cartesian axis) and pressure


     negative rho (up, down):  9.683E-04 0.000E+00
          total   stress  (Ry/bohr**3)                   (kbar)     P=       27.92
   0.00018982   0.00000000   0.00000000           27.92        0.00        0.00
   0.00000000   0.00018982   0.00000000            0.00       27.92        0.00
   0.00000000   0.00000000   0.00018982            0.00        0.00       27.92


     Writing all to output data dir ./out/TiFe8.save/ :
     XML data file, charge density, pseudopotentials, collected wavefunctions

     init_run     :      1.33s CPU      1.44s WALL (       1 calls)
     electrons    :     70.08s CPU     75.82s WALL (       1 calls)
     forces       :      0.43s CPU      0.49s WALL (       1 calls)
     stress       :      2.11s CPU      2.26s WALL (       1 calls)

     Called by init_run:
     wfcinit      :      0.81s CPU      0.84s WALL (       1 calls)
     potinit      :      0.15s CPU      0.17s WALL (       1 calls)
     hinit0       :      0.20s CPU      0.21s WALL (       1 calls)

     Called by electrons:
     c_bands      :     50.42s CPU     52.11s WALL (      29 calls)
     sum_band     :     11.31s CPU     13.48s WALL (      29 calls)
     v_of_rho     :      1.11s CPU      1.15s WALL (      30 calls)
     newd         :      4.24s CPU      5.86s WALL (      30 calls)
     PAW_pot      :      2.95s CPU      3.24s WALL (      30 calls)
     mix_rho      :      0.16s CPU      0.16s WALL (      29 calls)

     Called by c_bands:
     init_us_2    :      1.05s CPU      1.07s WALL (    3416 calls)
     cegterg      :     47.93s CPU     49.59s WALL (    1624 calls)

     Called by *egterg:
     cdiaghg      :      1.64s CPU      1.66s WALL (    5281 calls)
     h_psi        :     34.70s CPU     36.30s WALL (    5337 calls)
     s_psi        :      2.39s CPU      2.41s WALL (    5337 calls)
     g_psi        :      0.11s CPU      0.11s WALL (    3657 calls)

     Called by h_psi:
     h_psi:calbec :      3.49s CPU      3.61s WALL (    5337 calls)
     vloc_psi     :     28.45s CPU     29.90s WALL (    5337 calls)
     add_vuspsi   :      2.41s CPU      2.43s WALL (    5337 calls)

     General routines
     calbec       :      5.34s CPU      5.52s WALL (    7913 calls)
     fft          :      0.48s CPU      0.52s WALL (     413 calls)
     ffts         :      0.02s CPU      0.02s WALL (      59 calls)
     fftw         :     27.66s CPU     29.19s WALL (  166706 calls)
     interpolate  :      0.06s CPU      0.07s WALL (      30 calls)

     Parallel routines

     PWSCF        :   1m14.16s CPU   1m20.27s WALL


   This run was terminated on:   1: 7:47  30Oct2025            

=------------------------------------------------------------------------------=
   JOB DONE.
=------------------------------------------------------------------------------=
