
     Program PWSCF v.7.4.1 starts on 30Oct2025 at  1: 1:28 

     This program is part of the open-source Quantum ESPRESSO suite
     for quantum simulation of materials; please cite
         "P. Giannozzi et al., J. Phys.:Condens. Matter 21 395502 (2009);
         "P. Giannozzi et al., J. Phys.:Condens. Matter 29 465901 (2017);
         "P. Giannozzi et al., J. Chem. Phys. 152 154105 (2020);
          URL http://www.quantum-espresso.org", 
     in publications or presentations arising from this work. More details at
     http://www.quantum-espresso.org/quote

     Parallel version (MPI), running on     4 processors

     MPI processes distributed on     1 nodes
     5213 MiB available memory on the printing compute node when the environment starts

     Reading input from TiFe2.in

     Current dimensions of program PWSCF are:
     Max number of different atomic species (ntypx) = 10
     Max number of k-points (npk) =  40000
     Max angular momentum in pseudopotentials (lmaxx) =  4
     file Fe.pbe-spn-kjpaw_psl.0.2.1.UPF: wavefunction(s)  3D renormalized

     IMPORTANT: XC functional enforced from input :
     Exchange-correlation= PBE
                           (   1   4   3   4   0   0   0)
     Any further DFT definition will be discarded
     Please, verify this is what you really want

     Message from routine setup:
     using ibrav=0 with symmetry is DISCOURAGED, use correct ibrav instead

     R & G space division:  proc/nbgrp/npool/nimage =       4
     Subspace diagonalization in iterative solution of the eigenvalue problem:
     a serial algorithm will be used


     Parallelization info
     --------------------
     sticks:   dense  smooth     PW     G-vecs:    dense   smooth      PW
     Min         306     122     40                 8104     2054     375
     Max         307     123     41                 8107     2055     376
     Sum        1225     489    161                32423     8217    1503

     Using Slab Decomposition



     bravais-lattice index     =            0
     lattice parameter (alat)  =       5.5533  a.u.
     unit-cell volume          =     171.2590 (a.u.)^3
     number of atoms/cell      =            2
     number of atomic types    =            2
     number of electrons       =        28.00
     number of Kohn-Sham states=           18
     kinetic-energy cutoff     =      50.0000  Ry
     charge density cutoff     =     500.0000  Ry
     scf convergence threshold =      1.0E-08
     mixing beta               =       0.7000
     number of iterations used =            8  plain     mixing
     Exchange-correlation= PBE
                           (   1   4   3   4   0   0   0)

     celldm(1)=   5.553300  celldm(2)=   0.000000  celldm(3)=   0.000000
     celldm(4)=   0.000000  celldm(5)=   0.000000  celldm(6)=   0.000000

     crystal axes: (cart. coord. in units of alat)
               a(1) = (   1.000000   0.000000   0.000000 )  
               a(2) = (   0.000000   1.000000   0.000000 )  
               a(3) = (   0.000000   0.000000   1.000000 )  

     reciprocal axes: (cart. coord. in units 2 pi/alat)
               b(1) = (  1.000000  0.000000  0.000000 )  
               b(2) = (  0.000000  1.000000  0.000000 )  
               b(3) = (  0.000000  0.000000  1.000000 )  


     PseudoPot. # 1 for Fe read from file:
     /home/rafi/QE/qe-7.4.1/pseudo/Fe.pbe-spn-kjpaw_psl.0.2.1.UPF
     MD5 check sum: e86618425769142926afa95317d90200
     Pseudo is Projector augmented-wave + core cor, Zval = 16.0
     Generated using "atomic" code by A. Dal Corso  v.5.0.99 svn rev. 10869
     Shape of augmentation charge: PSQ
     Using radial grid of 1191 points,  6 beta functions with: 
                l(1) =   0
                l(2) =   0
                l(3) =   1
                l(4) =   1
                l(5) =   2
                l(6) =   2
     Q(r) pseudized with 0 coefficients 


     PseudoPot. # 2 for Ti read from file:
     /home/rafi/QE/qe-7.4.1/pseudo/ti_pbe_v1.4.uspp.F.UPF
     MD5 check sum: 88a00a6731bd790ddea75d31a80cb452
     Pseudo is Ultrasoft + core correction, Zval = 12.0
     Generated by new atomic code, or converted to UPF format
     Using radial grid of  851 points,  6 beta functions with: 
                l(1) =   0
                l(2) =   0
                l(3) =   1
                l(4) =   1
                l(5) =   2
                l(6) =   2
     Q(r) pseudized with  6 coefficients,  rinner =    1.000   1.000   1.000
                                                       1.000   1.000

     atomic species   valence    mass     pseudopotential
     Fe               16.00    55.84500     Fe( 1.00)
     Ti               12.00    47.86700     Ti( 1.00)

     48 Sym. Ops., with inversion, found



   Cartesian axes

     site n.     atom                  positions (alat units)
         1        Fe     tau(   1) = (   0.5000000   0.5000000   0.5000000  )
         2        Ti     tau(   2) = (   0.0000000   0.0000000   0.0000000  )

     number of k points=    56  Marzari-Vanderbilt smearing, width (Ry)=  0.0050
                       cart. coord. in units 2pi/alat
        k(    1) = (   0.0000000   0.0000000   0.0000000), wk =   0.0020000
        k(    2) = (   0.0000000   0.0000000   0.1000000), wk =   0.0120000
        k(    3) = (   0.0000000   0.0000000   0.2000000), wk =   0.0120000
        k(    4) = (   0.0000000   0.0000000   0.3000000), wk =   0.0120000
        k(    5) = (   0.0000000   0.0000000   0.4000000), wk =   0.0120000
        k(    6) = (   0.0000000   0.0000000  -0.5000000), wk =   0.0060000
        k(    7) = (   0.0000000   0.1000000   0.1000000), wk =   0.0240000
        k(    8) = (   0.0000000   0.1000000   0.2000000), wk =   0.0480000
        k(    9) = (   0.0000000   0.1000000   0.3000000), wk =   0.0480000
        k(   10) = (   0.0000000   0.1000000   0.4000000), wk =   0.0480000
        k(   11) = (   0.0000000   0.1000000  -0.5000000), wk =   0.0240000
        k(   12) = (   0.0000000   0.2000000   0.2000000), wk =   0.0240000
        k(   13) = (   0.0000000   0.2000000   0.3000000), wk =   0.0480000
        k(   14) = (   0.0000000   0.2000000   0.4000000), wk =   0.0480000
        k(   15) = (   0.0000000   0.2000000  -0.5000000), wk =   0.0240000
        k(   16) = (   0.0000000   0.3000000   0.3000000), wk =   0.0240000
        k(   17) = (   0.0000000   0.3000000   0.4000000), wk =   0.0480000
        k(   18) = (   0.0000000   0.3000000  -0.5000000), wk =   0.0240000
        k(   19) = (   0.0000000   0.4000000   0.4000000), wk =   0.0240000
        k(   20) = (   0.0000000   0.4000000  -0.5000000), wk =   0.0240000
        k(   21) = (   0.0000000  -0.5000000  -0.5000000), wk =   0.0060000
        k(   22) = (   0.1000000   0.1000000   0.1000000), wk =   0.0160000
        k(   23) = (   0.1000000   0.1000000   0.2000000), wk =   0.0480000
        k(   24) = (   0.1000000   0.1000000   0.3000000), wk =   0.0480000
        k(   25) = (   0.1000000   0.1000000   0.4000000), wk =   0.0480000
        k(   26) = (   0.1000000   0.1000000  -0.5000000), wk =   0.0240000
        k(   27) = (   0.1000000   0.2000000   0.2000000), wk =   0.0480000
        k(   28) = (   0.1000000   0.2000000   0.3000000), wk =   0.0960000
        k(   29) = (   0.1000000   0.2000000   0.4000000), wk =   0.0960000
        k(   30) = (   0.1000000   0.2000000  -0.5000000), wk =   0.0480000
        k(   31) = (   0.1000000   0.3000000   0.3000000), wk =   0.0480000
        k(   32) = (   0.1000000   0.3000000   0.4000000), wk =   0.0960000
        k(   33) = (   0.1000000   0.3000000  -0.5000000), wk =   0.0480000
        k(   34) = (   0.1000000   0.4000000   0.4000000), wk =   0.0480000
        k(   35) = (   0.1000000   0.4000000  -0.5000000), wk =   0.0480000
        k(   36) = (   0.1000000  -0.5000000  -0.5000000), wk =   0.0120000
        k(   37) = (   0.2000000   0.2000000   0.2000000), wk =   0.0160000
        k(   38) = (   0.2000000   0.2000000   0.3000000), wk =   0.0480000
        k(   39) = (   0.2000000   0.2000000   0.4000000), wk =   0.0480000
        k(   40) = (   0.2000000   0.2000000  -0.5000000), wk =   0.0240000
        k(   41) = (   0.2000000   0.3000000   0.3000000), wk =   0.0480000
        k(   42) = (   0.2000000   0.3000000   0.4000000), wk =   0.0960000
        k(   43) = (   0.2000000   0.3000000  -0.5000000), wk =   0.0480000
        k(   44) = (   0.2000000   0.4000000   0.4000000), wk =   0.0480000
        k(   45) = (   0.2000000   0.4000000  -0.5000000), wk =   0.0480000
        k(   46) = (   0.2000000  -0.5000000  -0.5000000), wk =   0.0120000
        k(   47) = (   0.3000000   0.3000000   0.3000000), wk =   0.0160000
        k(   48) = (   0.3000000   0.3000000   0.4000000), wk =   0.0480000
        k(   49) = (   0.3000000   0.3000000  -0.5000000), wk =   0.0240000
        k(   50) = (   0.3000000   0.4000000   0.4000000), wk =   0.0480000
        k(   51) = (   0.3000000   0.4000000  -0.5000000), wk =   0.0480000
        k(   52) = (   0.3000000  -0.5000000  -0.5000000), wk =   0.0120000
        k(   53) = (   0.4000000   0.4000000   0.4000000), wk =   0.0160000
        k(   54) = (   0.4000000   0.4000000  -0.5000000), wk =   0.0240000
        k(   55) = (   0.4000000  -0.5000000  -0.5000000), wk =   0.0120000
        k(   56) = (  -0.5000000  -0.5000000  -0.5000000), wk =   0.0020000

     Dense  grid:    32423 G-vectors     FFT dimensions: (  40,  40,  40)

     Smooth grid:     8217 G-vectors     FFT dimensions: (  25,  25,  25)

     Estimated max dynamical RAM per process >      37.25 MB

     Estimated total dynamical RAM >     149.01 MB

     Check: negative core charge=   -0.000055

     Initial potential from superposition of free atoms

     starting charge      26.9995, renormalised to      28.0000

     negative rho (up, down):  1.265E-03 0.000E+00
     Starting wfcs are   23 randomized atomic wfcs
     Checking if some PAW data can be deallocated... 

     total cpu time spent up to now is        0.8 secs

     Self-consistent Calculation

     iteration #  1     ecut=    50.00 Ry     beta= 0.70
     Davidson diagonalization with overlap
     ethr =  1.00E-02,  avg # of iterations =  2.2

     negative rho (up, down):  3.742E-04 0.000E+00

     total cpu time spent up to now is        1.7 secs

     total energy              =    -434.91034145 Ry
     estimated scf accuracy    <      17.43339864 Ry

     iteration #  2     ecut=    50.00 Ry     beta= 0.70
     Davidson diagonalization with overlap
     ethr =  1.00E-02,  avg # of iterations =  6.0

     negative rho (up, down):  1.386E-04 0.000E+00

     total cpu time spent up to now is        3.1 secs

     WARNING: integrated charge=    28.00014653, expected=    28.00000000

     total energy              =    -448.61496428 Ry
     estimated scf accuracy    <      65.48505430 Ry

     iteration #  3     ecut=    50.00 Ry     beta= 0.70
     Davidson diagonalization with overlap
     ethr =  1.00E-02,  avg # of iterations =  3.2

     negative rho (up, down):  2.977E-04 0.000E+00

     total cpu time spent up to now is        4.2 secs

     WARNING: integrated charge=    28.00001980, expected=    28.00000000

     total energy              =    -448.56423484 Ry
     estimated scf accuracy    <      16.77480349 Ry

     iteration #  4     ecut=    50.00 Ry     beta= 0.70
     Davidson diagonalization with overlap
     ethr =  1.00E-02,  avg # of iterations =  2.1

     negative rho (up, down):  3.078E-04 0.000E+00

     total cpu time spent up to now is        5.1 secs

     WARNING: integrated charge=    28.00002129, expected=    28.00000000

     total energy              =    -449.09399931 Ry
     estimated scf accuracy    <       4.79067448 Ry

     iteration #  5     ecut=    50.00 Ry     beta= 0.70
     Davidson diagonalization with overlap
     ethr =  1.00E-02,  avg # of iterations =  1.0

     negative rho (up, down):  3.106E-04 0.000E+00

     total cpu time spent up to now is        5.8 secs

     WARNING: integrated charge=    28.00002233, expected=    28.00000000

     total energy              =    -449.11124649 Ry
     estimated scf accuracy    <       4.37970048 Ry

     iteration #  6     ecut=    50.00 Ry     beta= 0.70
     Davidson diagonalization with overlap
     ethr =  1.00E-02,  avg # of iterations =  1.0

     negative rho (up, down):  3.459E-04 0.000E+00

     total cpu time spent up to now is        6.5 secs

     WARNING: integrated charge=    28.00001761, expected=    28.00000000

     total energy              =    -448.90897373 Ry
     estimated scf accuracy    <       4.36417323 Ry

     iteration #  7     ecut=    50.00 Ry     beta= 0.70
     Davidson diagonalization with overlap
     ethr =  1.00E-02,  avg # of iterations =  1.0

     negative rho (up, down):  3.787E-04 0.000E+00

     total cpu time spent up to now is        7.2 secs

     WARNING: integrated charge=    28.00001730, expected=    28.00000000

     total energy              =    -448.91238747 Ry
     estimated scf accuracy    <       2.86235741 Ry

     iteration #  8     ecut=    50.00 Ry     beta= 0.70
     Davidson diagonalization with overlap
     ethr =  1.00E-02,  avg # of iterations =  1.0

     negative rho (up, down):  1.063E-03 0.000E+00

     total cpu time spent up to now is        8.0 secs

     WARNING: integrated charge=    28.00000537, expected=    28.00000000

     total energy              =    -448.22375033 Ry
     estimated scf accuracy    <       3.32795507 Ry

     iteration #  9     ecut=    50.00 Ry     beta= 0.70
     Davidson diagonalization with overlap
     ethr =  1.00E-02,  avg # of iterations =  2.0

     negative rho (up, down):  9.102E-04 0.000E+00

     total cpu time spent up to now is        8.8 secs

     WARNING: integrated charge=    28.00000649, expected=    28.00000000

     total energy              =    -448.57487538 Ry
     estimated scf accuracy    <       0.35307313 Ry

     iteration # 10     ecut=    50.00 Ry     beta= 0.70
     Davidson diagonalization with overlap
     ethr =  1.26E-03,  avg # of iterations =  2.5

     negative rho (up, down):  1.122E-03 0.000E+00

     total cpu time spent up to now is        9.6 secs

     WARNING: integrated charge=    28.00000393, expected=    28.00000000

     total energy              =    -448.64045395 Ry
     estimated scf accuracy    <       0.34317824 Ry

     iteration # 11     ecut=    50.00 Ry     beta= 0.70
     Davidson diagonalization with overlap
     ethr =  1.23E-03,  avg # of iterations =  3.1

     negative rho (up, down):  1.985E-03 0.000E+00

     total cpu time spent up to now is       10.4 secs

     WARNING: integrated charge=    27.99998834, expected=    28.00000000

     total energy              =    -449.13630816 Ry
     estimated scf accuracy    <       2.03610722 Ry

     iteration # 12     ecut=    50.00 Ry     beta= 0.70
     Davidson diagonalization with overlap
     ethr =  1.23E-03,  avg # of iterations =  4.9

     negative rho (up, down):  4.435E-04 0.000E+00

     total cpu time spent up to now is       11.4 secs

     WARNING: integrated charge=    28.00000353, expected=    28.00000000

     total energy              =    -446.95268317 Ry
     estimated scf accuracy    <      22.38103355 Ry

     iteration # 13     ecut=    50.00 Ry     beta= 0.70
     Davidson diagonalization with overlap
     ethr =  1.23E-03,  avg # of iterations =  5.1

     negative rho (up, down):  4.276E-04 0.000E+00

     total cpu time spent up to now is       12.5 secs

     total energy              =    -448.58915540 Ry
     estimated scf accuracy    <       0.69701155 Ry

     iteration # 14     ecut=    50.00 Ry     beta= 0.70
     Davidson diagonalization with overlap
     ethr =  1.23E-03,  avg # of iterations =  1.0

     negative rho (up, down):  4.713E-04 0.000E+00

     total cpu time spent up to now is       13.2 secs

     total energy              =    -448.59080815 Ry
     estimated scf accuracy    <       0.25965310 Ry

     iteration # 15     ecut=    50.00 Ry     beta= 0.70
     Davidson diagonalization with overlap
     ethr =  9.27E-04,  avg # of iterations =  1.0

     negative rho (up, down):  1.134E-03 0.000E+00

     total cpu time spent up to now is       14.0 secs

     WARNING: integrated charge=    27.99999608, expected=    28.00000000

     total energy              =    -448.48677338 Ry
     estimated scf accuracy    <       0.32495839 Ry

     iteration # 16     ecut=    50.00 Ry     beta= 0.70
     Davidson diagonalization with overlap
     ethr =  9.27E-04,  avg # of iterations =  4.2

     negative rho (up, down):  8.423E-04 0.000E+00

     total cpu time spent up to now is       14.9 secs

     total energy              =    -448.52657080 Ry
     estimated scf accuracy    <       2.27058935 Ry

     iteration # 17     ecut=    50.00 Ry     beta= 0.70
     Davidson diagonalization with overlap
     ethr =  9.27E-04,  avg # of iterations =  2.8

     negative rho (up, down):  7.193E-04 0.000E+00

     total cpu time spent up to now is       15.7 secs

     total energy              =    -448.56378768 Ry
     estimated scf accuracy    <       0.20166594 Ry

     iteration # 18     ecut=    50.00 Ry     beta= 0.70
     Davidson diagonalization with overlap
     ethr =  7.20E-04,  avg # of iterations =  1.3

     negative rho (up, down):  7.153E-04 0.000E+00

     total cpu time spent up to now is       16.4 secs

     total energy              =    -448.57249911 Ry
     estimated scf accuracy    <       0.00912986 Ry

     iteration # 19     ecut=    50.00 Ry     beta= 0.70
     Davidson diagonalization with overlap
     ethr =  3.26E-05,  avg # of iterations =  4.1

     negative rho (up, down):  6.901E-04 0.000E+00

     total cpu time spent up to now is       17.3 secs

     total energy              =    -448.57386458 Ry
     estimated scf accuracy    <       0.00114998 Ry

     iteration # 20     ecut=    50.00 Ry     beta= 0.70
     Davidson diagonalization with overlap
     ethr =  4.11E-06,  avg # of iterations =  2.5

     negative rho (up, down):  6.686E-04 0.000E+00

     total cpu time spent up to now is       18.1 secs

     total energy              =    -448.57383399 Ry
     estimated scf accuracy    <       0.00076719 Ry

     iteration # 21     ecut=    50.00 Ry     beta= 0.70
     Davidson diagonalization with overlap
     ethr =  2.74E-06,  avg # of iterations =  2.3

     negative rho (up, down):  6.844E-04 0.000E+00

     total cpu time spent up to now is       18.9 secs

     total energy              =    -448.57389593 Ry
     estimated scf accuracy    <       0.00010127 Ry

     iteration # 22     ecut=    50.00 Ry     beta= 0.70
     Davidson diagonalization with overlap
     ethr =  3.62E-07,  avg # of iterations =  2.3

     negative rho (up, down):  6.865E-04 0.000E+00

     total cpu time spent up to now is       19.7 secs

     total energy              =    -448.57392336 Ry
     estimated scf accuracy    <       0.00023846 Ry

     iteration # 23     ecut=    50.00 Ry     beta= 0.70
     Davidson diagonalization with overlap
     ethr =  3.62E-07,  avg # of iterations =  1.0

     negative rho (up, down):  6.793E-04 0.000E+00

     total cpu time spent up to now is       20.5 secs

     total energy              =    -448.57392990 Ry
     estimated scf accuracy    <       0.00022969 Ry

     iteration # 24     ecut=    50.00 Ry     beta= 0.70
     Davidson diagonalization with overlap
     ethr =  3.62E-07,  avg # of iterations =  1.0

     negative rho (up, down):  6.922E-04 0.000E+00

     total cpu time spent up to now is       21.2 secs

     total energy              =    -448.57392298 Ry
     estimated scf accuracy    <       0.00024790 Ry

     iteration # 25     ecut=    50.00 Ry     beta= 0.70
     Davidson diagonalization with overlap
     ethr =  3.62E-07,  avg # of iterations =  1.0

     negative rho (up, down):  6.962E-04 0.000E+00

     total cpu time spent up to now is       21.9 secs

     total energy              =    -448.57390359 Ry
     estimated scf accuracy    <       0.00025121 Ry

     iteration # 26     ecut=    50.00 Ry     beta= 0.70
     Davidson diagonalization with overlap
     ethr =  3.62E-07,  avg # of iterations =  1.2

     negative rho (up, down):  6.958E-04 0.000E+00

     total cpu time spent up to now is       22.7 secs

     total energy              =    -448.57391146 Ry
     estimated scf accuracy    <       0.00002075 Ry

     iteration # 27     ecut=    50.00 Ry     beta= 0.70
     Davidson diagonalization with overlap
     ethr =  7.41E-08,  avg # of iterations =  1.8

     negative rho (up, down):  6.968E-04 0.000E+00

     total cpu time spent up to now is       23.4 secs

     total energy              =    -448.57391083 Ry
     estimated scf accuracy    <       0.00001210 Ry

     iteration # 28     ecut=    50.00 Ry     beta= 0.70
     Davidson diagonalization with overlap
     ethr =  4.32E-08,  avg # of iterations =  1.8

     negative rho (up, down):  6.967E-04 0.000E+00

     total cpu time spent up to now is       24.3 secs

     total energy              =    -448.57391166 Ry
     estimated scf accuracy    <       0.00000015 Ry

     iteration # 29     ecut=    50.00 Ry     beta= 0.70
     Davidson diagonalization with overlap
     ethr =  5.33E-10,  avg # of iterations =  4.9

     negative rho (up, down):  6.964E-04 0.000E+00

     total cpu time spent up to now is       25.5 secs

     total energy              =    -448.57391181 Ry
     estimated scf accuracy    <       0.00000019 Ry

     iteration # 30     ecut=    50.00 Ry     beta= 0.70
     Davidson diagonalization with overlap
     ethr =  5.33E-10,  avg # of iterations =  1.4

     negative rho (up, down):  6.960E-04 0.000E+00

     total cpu time spent up to now is       26.3 secs

     total energy              =    -448.57391180 Ry
     estimated scf accuracy    <       0.00000005 Ry

     iteration # 31     ecut=    50.00 Ry     beta= 0.70
     Davidson diagonalization with overlap
     ethr =  1.91E-10,  avg # of iterations =  2.2

     negative rho (up, down):  6.962E-04 0.000E+00

     total cpu time spent up to now is       27.2 secs

     End of self-consistent calculation

          k = 0.0000 0.0000 0.0000 (  1021 PWs)   bands (ev):

   -69.2022 -39.1125 -35.2583 -35.2583 -35.2583 -15.2081 -15.2081 -15.2081
    10.1587  13.8708  13.8708  16.6648  16.6648  16.6648  19.0160  19.0160
    20.9659  20.9659

          k = 0.0000 0.0000 0.1000 (  1021 PWs)   bands (ev):

   -69.2018 -39.1099 -35.2610 -35.2577 -35.2577 -15.2434 -15.2060 -15.2060
    10.3679  13.9712  13.9793  16.6494  16.6494  16.7103  18.8884  19.0636
    20.6676  20.6676

          k = 0.0000 0.0000 0.2000 (  1013 PWs)   bands (ev):

   -69.2008 -39.1032 -35.2686 -35.2560 -35.2560 -15.3350 -15.2005 -15.2005
    10.9721  14.2518  14.2637  16.6162  16.6162  16.8357  18.5229  19.1621
    20.0028  20.0028

          k = 0.0000 0.0000 0.3000 (  1020 PWs)   bands (ev):

   -69.1999 -39.0950 -35.2785 -35.2545 -35.2545 -15.4467 -15.1937 -15.1937
    11.8915  14.5257  14.7162  16.5926  16.5926  17.0061  17.9760  19.1497
    19.3124  19.3124

          k = 0.0000 0.0000 0.4000 (  1024 PWs)   bands (ev):

   -69.1991 -39.0883 -35.2860 -35.2534 -35.2534 -15.5359 -15.1882 -15.1882
    12.9823  14.5339  15.2441  16.5936  16.5936  17.1602  17.3687  18.8088
    18.8088  18.8467

          k = 0.0000 0.0000-0.5000 (  1020 PWs)   bands (ev):

   -69.1987 -39.0858 -35.2892 -35.2527 -35.2527 -15.5697 -15.1861 -15.1861
    13.8586  14.1165  15.5538  16.6007  16.6007  17.0279  17.2240  18.6091
    18.6234  18.6234

          k = 0.0000 0.1000 0.1000 (  1015 PWs)   bands (ev):

   -69.2014 -39.1072 -35.2623 -35.2587 -35.2571 -15.2446 -15.2372 -15.2038
    10.5725  14.0655  14.0889  16.5505  16.6228  16.8223  18.8742  19.0289
    20.3515  20.3709

          k = 0.0000 0.1000 0.2000 (  1022 PWs)   bands (ev):

   -69.2007 -39.1000 -35.2695 -35.2593 -35.2557 -15.3319 -15.2340 -15.1980
    11.1596  14.3172  14.3835  16.4573  16.5601  16.9468  18.6029  19.1158
    19.7328  19.7974

          k = 0.0000 0.1000 0.3000 (  1028 PWs)   bands (ev):

   -69.1997 -39.0911 -35.2796 -35.2586 -35.2542 -15.4421 -15.2261 -15.1908
    12.0472  14.5908  14.7947  16.4164  16.4937  17.0052  18.1540  18.9412
    19.3147  19.3359

          k = 0.0000 0.1000 0.4000 (  1030 PWs)   bands (ev):

   -69.1989 -39.0840 -35.2877 -35.2579 -35.2528 -15.5302 -15.2196 -15.1850
    13.0848  14.5839  15.2691  16.4320  16.4392  16.9543  17.6946  18.4982
    19.0636  19.1843

          k = 0.0000 0.1000-0.5000 (  1016 PWs)   bands (ev):

   -69.1983 -39.0812 -35.2903 -35.2571 -35.2520 -15.5635 -15.2171 -15.1827
    13.8944  14.1935  15.5442  16.3694  16.4734  16.8935  17.4951  18.3050
    19.0059  19.0475

          k = 0.0000 0.2000 0.2000 (  1015 PWs)   bands (ev):

   -69.1997 -39.0915 -35.2727 -35.2652 -35.2543 -15.3319 -15.3125 -15.1914
    11.6908  14.4630  14.7228  16.2523  16.4431  16.9804  18.6975  19.0756
    19.1736  19.5200

          k = 0.0000 0.2000 0.3000 (  1021 PWs)   bands (ev):

   -69.1987 -39.0811 -35.2820 -35.2681 -35.2528 -15.4301 -15.3099 -15.1832
    12.4659  14.5912  15.1622  16.1217  16.3613  16.8095  18.5229  18.6651
    19.2488  19.4601

          k = 0.0000 0.2000 0.4000 (  1022 PWs)   bands (ev):

   -69.1979 -39.0726 -35.2904 -35.2691 -35.2517 -15.5151 -15.3012 -15.1766
    13.3086  14.5197  15.5568  16.1061  16.4040  16.5309  18.2124  18.3959
    19.3970  19.5883

          k = 0.0000 0.2000-0.5000 (  1018 PWs)   bands (ev):

   -69.1975 -39.0693 -35.2931 -35.2694 -35.2512 -15.5474 -15.2978 -15.1740
    13.8675  14.2598  15.7251  16.1680  16.3501  16.4863  18.1487  18.1969
    19.4325  19.6877

          k = 0.0000 0.3000 0.3000 (  1027 PWs)   bands (ev):

   -69.1978 -39.0686 -35.2867 -35.2787 -35.2517 -15.4233 -15.4042 -15.1738
    12.9989  14.4804  15.7063  15.8893  16.4092  16.4479  18.5327  18.8439
    19.1398  19.7737

          k = 0.0000 0.3000 0.4000 (  1038 PWs)   bands (ev):

   -69.1971 -39.0584 -35.2942 -35.2839 -35.2510 -15.4965 -15.4008 -15.1662
    13.4551  14.2883  15.7905  16.0970  16.1725  16.7835  18.3619  18.8644
    19.3577  20.1257

          k = 0.0000 0.3000-0.5000 (  1026 PWs)   bands (ev):

   -69.1966 -39.0546 -35.2972 -35.2849 -35.2501 -15.5274 -15.3964 -15.1633
    13.6681  14.1533  15.8320  15.8914  16.3266  17.1973  18.0966  18.8671
    19.5459  20.3261

          k = 0.0000 0.4000 0.4000 (  1029 PWs)   bands (ev):

   -69.1961 -39.0470 -35.2977 -35.2945 -35.2497 -15.4846 -15.4773 -15.1578
    13.4696  14.0873  15.6027  15.7634  16.9067  17.3700  18.6026  19.0773
    19.2739  20.5545

          k = 0.0000 0.4000-0.5000 (  1028 PWs)   bands (ev):

   -69.1958 -39.0426 -35.3005 -35.2973 -35.2494 -15.5112 -15.4751 -15.1546
    13.4551  14.0124  15.5848  15.5963  17.1962  18.1024  18.1769  19.2275
    19.3392  20.7744

          k = 0.0000-0.5000-0.5000 (  1024 PWs)   bands (ev):

   -69.1954 -39.0380 -35.3018 -35.3018 -35.2488 -15.5050 -15.5050 -15.1512
    13.3702  13.9549  15.4950  15.4950  17.7708  18.2031  18.7567  18.7567
    19.4628  20.9363

          k = 0.1000 0.1000 0.1000 (  1009 PWs)   bands (ev):

   -69.2010 -39.1043 -35.2614 -35.2614 -35.2571 -15.2449 -15.2350 -15.2350
    10.7730  14.1773  14.1773  16.5214  16.5214  16.9042  18.9392  18.9392
    19.8823  20.6421

          k = 0.1000 0.1000 0.2000 (  1014 PWs)   bands (ev):

   -69.2002 -39.0967 -35.2695 -35.2600 -35.2575 -15.3286 -15.2332 -15.2294
    11.3460  14.4317  14.4548  16.3935  16.4454  16.9616  18.6828  19.0745
    19.4171  19.9752

          k = 0.1000 0.1000 0.3000 (  1032 PWs)   bands (ev):

   -69.1994 -39.0873 -35.2803 -35.2588 -35.2578 -15.4376 -15.2238 -15.2224
    12.2067  14.7158  14.8165  16.3428  16.3435  16.8920  18.3077  18.9367
    19.3006  19.3861

          k = 0.1000 0.1000 0.4000 (  1026 PWs)   bands (ev):

   -69.1985 -39.0797 -35.2883 -35.2574 -35.2573 -15.5247 -15.2168 -15.2161
    13.2012  14.6768  15.2499  16.2128  16.4241  16.7726  17.9309  18.6030
    18.8289  19.5758

          k = 0.1000 0.1000-0.5000 (  1022 PWs)   bands (ev):

   -69.1981 -39.0768 -35.2912 -35.2572 -35.2568 -15.5577 -15.2146 -15.2132
    13.9569  14.2900  15.5003  16.1044  16.5518  16.6933  17.7613  18.3768
    18.6610  19.7020

          k = 0.1000 0.2000 0.2000 (  1019 PWs)   bands (ev):

   -69.1994 -39.0880 -35.2723 -35.2661 -35.2577 -15.3277 -15.3103 -15.2241
    11.8727  14.5934  14.7748  16.2059  16.3148  16.8300  18.7820  19.0503
    19.2154  19.6896

          k = 0.1000 0.2000 0.3000 (  1023 PWs)   bands (ev):

   -69.1984 -39.0772 -35.2819 -35.2683 -35.2571 -15.4260 -15.3069 -15.2154
    12.6365  14.7415  15.1649  16.0669  16.2226  16.5758  18.6443  18.8462
    19.2353  19.5867

          k = 0.1000 0.2000 0.4000 (  1027 PWs)   bands (ev):

   -69.1977 -39.0685 -35.2908 -35.2689 -35.2565 -15.5105 -15.2982 -15.2082
    13.4566  14.6680  15.4624  15.9883  16.2882  16.4441  18.4066  18.4816
    19.0450  20.0538

          k = 0.1000 0.2000-0.5000 (  1026 PWs)   bands (ev):

   -69.1973 -39.0652 -35.2940 -35.2691 -35.2561 -15.5425 -15.2949 -15.2055
    13.9921  14.3970  15.5904  15.9468  16.3020  16.5461  18.2106  18.3604
    18.9037  20.4274

          k = 0.1000 0.3000 0.3000 (  1029 PWs)   bands (ev):

   -69.1975 -39.0647 -35.2863 -35.2791 -35.2561 -15.4189 -15.4019 -15.2058
    13.1790  14.6311  15.6989  15.8463  16.2102  16.2613  18.6367  18.9986
    19.0978  19.9971

          k = 0.1000 0.3000 0.4000 (  1015 PWs)   bands (ev):

   -69.1964 -39.0546 -35.2937 -35.2830 -35.2546 -15.4929 -15.3980 -15.1980
    13.6285  14.4389  15.7394  15.9039  16.1838  16.6199  18.3992  18.9469
    19.1498  20.5397

          k = 0.1000 0.3000-0.5000 (  1020 PWs)   bands (ev):

   -69.1962 -39.0507 -35.2974 -35.2842 -35.2544 -15.5238 -15.3937 -15.1950
    13.8255  14.3076  15.7584  15.7741  16.2850  17.0491  18.1186  18.9989
    19.0467  20.7157

          k = 0.1000 0.4000 0.4000 (  1022 PWs)   bands (ev):

   -69.1957 -39.0433 -35.2971 -35.2942 -35.2537 -15.4814 -15.4750 -15.1897
    13.6405  14.2398  15.5710  15.7003  16.8334  17.1532  18.4796  18.8351
    19.3780  20.8286

          k = 0.1000 0.4000-0.5000 (  1030 PWs)   bands (ev):

   -69.1955 -39.0390 -35.3004 -35.2968 -35.2536 -15.5085 -15.4728 -15.1866
    13.6207  14.1671  15.5511  15.5586  17.0969  17.8332  18.0951  18.7983
    19.4479  20.9347

          k = 0.1000-0.5000-0.5000 (  1024 PWs)   bands (ev):

   -69.1950 -39.0345 -35.3014 -35.3014 -35.2531 -15.5027 -15.5027 -15.1833
    13.5376  14.1092  15.4699  15.4699  17.7745  18.2045  18.2368  18.2368
    19.5671  21.5947

          k = 0.2000 0.2000 0.2000 (  1024 PWs)   bands (ev):

   -69.1987 -39.0787 -35.2710 -35.2710 -35.2644 -15.3215 -15.3044 -15.3044
    12.3801  14.9192  14.9192  16.0860  16.0860  16.4369  18.9735  18.9735
    19.4724  19.9424

          k = 0.2000 0.2000 0.3000 (  1024 PWs)   bands (ev):

   -69.1976 -39.0671 -35.2822 -35.2694 -35.2667 -15.4152 -15.3008 -15.2971
    13.0971  15.1204  15.1720  15.9345  15.9592  16.1292  18.8524  18.9784
    19.3277  19.9378

          k = 0.2000 0.2000 0.4000 (  1019 PWs)   bands (ev):

   -69.1967 -39.0578 -35.2917 -35.2680 -35.2678 -15.4983 -15.2912 -15.2896
    13.8172  14.9518  15.3223  15.7903  16.0564  16.2785  18.5687  18.7186
    18.9337  20.4903

          k = 0.2000 0.2000-0.5000 (  1018 PWs)   bands (ev):

   -69.1963 -39.0542 -35.2956 -35.2683 -35.2673 -15.5299 -15.2889 -15.2853
    14.2414  14.6538  15.4292  15.7099  16.1346  16.5178  18.2281  18.6480
    18.8124  20.5991

          k = 0.2000 0.3000 0.3000 (  1025 PWs)   bands (ev):

   -69.1966 -39.0546 -35.2848 -35.2799 -35.2674 -15.4072 -15.3959 -15.2889
    13.6784  15.0276  15.6654  15.7447  15.7802  15.8950  18.7476  18.9388
    19.4257  20.1937

          k = 0.2000 0.3000 0.4000 (  1015 PWs)   bands (ev):

   -69.1956 -39.0445 -35.2933 -35.2823 -35.2664 -15.4834 -15.3907 -15.2807
    14.1029  14.8070  15.5936  15.6461  16.0047  16.3009  18.4433  18.7067
    19.4049  20.5296

          k = 0.2000 0.3000-0.5000 (  1024 PWs)   bands (ev):

   -69.1954 -39.0406 -35.2976 -35.2829 -35.2664 -15.5142 -15.3868 -15.2775
    14.2486  14.6778  15.5523  15.6145  16.1061  16.7087  18.1222  18.6112
    19.3762  20.7031

          k = 0.2000 0.4000 0.4000 (  1024 PWs)   bands (ev):

   -69.1949 -39.0337 -35.2955 -35.2937 -35.2657 -15.4733 -15.4690 -15.2728
    14.1212  14.6275  15.4975  15.5734  16.5974  16.6071  18.3733  18.4277
    19.7120  20.7897

          k = 0.2000 0.4000-0.5000 (  1022 PWs)   bands (ev):

   -69.1945 -39.0295 -35.2991 -35.2950 -35.2653 -15.5016 -15.4665 -15.2697
    14.0869  14.5646  15.4768  15.4800  16.7501  17.1611  18.0303  18.3853
    19.7785  20.9895

          k = 0.2000-0.5000-0.5000 (  1020 PWs)   bands (ev):

   -69.1941 -39.0253 -35.2997 -35.2997 -35.2648 -15.4967 -15.4967 -15.2667
    14.0124  14.5120  15.4144  15.4144  17.3809  17.3809  17.7843  18.1902
    19.8867  21.2385

          k = 0.3000 0.3000 0.3000 (  1015 PWs)   bands (ev):

   -69.1954 -39.0421 -35.2826 -35.2826 -35.2795 -15.3947 -15.3884 -15.3884
    14.3300  15.2894  15.5823  15.5823  15.6516  15.6516  18.6857  18.6857
    19.9834  19.9834

          k = 0.3000 0.3000 0.4000 (  1016 PWs)   bands (ev):

   -69.1945 -39.0319 -35.2931 -35.2812 -35.2811 -15.4717 -15.3824 -15.3808
    14.6755  15.0471  15.5008  15.5782  15.7335  16.1078  18.3480  18.4840
    19.9166  20.5393

          k = 0.3000 0.3000-0.5000 (  1012 PWs)   bands (ev):

   -69.1941 -39.0280 -35.2974 -35.2813 -35.2803 -15.5025 -15.3801 -15.3764
    14.6856  14.9622  15.4740  15.5440  15.9041  16.4569  18.0453  18.4143
    19.9026  20.7822

          k = 0.3000 0.4000 0.4000 (  1022 PWs)   bands (ev):

   -69.1938 -39.0218 -35.2937 -35.2927 -35.2801 -15.4631 -15.4616 -15.3741
    14.7876  15.0389  15.4342  15.5600  16.0281  16.2276  18.1661  18.2699
    20.2502  20.8131

          k = 0.3000 0.4000-0.5000 (  1022 PWs)   bands (ev):

   -69.1935 -39.0179 -35.2976 -35.2932 -35.2796 -15.4929 -15.4588 -15.3713
    14.7385  15.0036  15.4428  15.4551  16.2355  16.5243  17.9378  18.2129
    20.3081  21.0434

          k = 0.3000-0.5000-0.5000 (  1024 PWs)   bands (ev):

   -69.1932 -39.0140 -35.2977 -35.2977 -35.2794 -15.4893 -15.4893 -15.3686
    14.7024  15.0011  15.3789  15.3789  16.6192  16.6192  17.7965  18.1122
    20.4118  21.2640

          k = 0.4000 0.4000 0.4000 (  1019 PWs)   bands (ev):

   -69.1929 -39.0121 -35.2921 -35.2916 -35.2916 -15.4555 -15.4555 -15.4546
    15.0824  15.4402  15.4402  15.6715  15.8604  15.8604  18.0542  18.0542
    20.8444  20.8444

          k = 0.4000 0.4000-0.5000 (  1030 PWs)   bands (ev):

   -69.1928 -39.0084 -35.2966 -35.2918 -35.2914 -15.4860 -15.4532 -15.4518
    15.2033  15.2417  15.5166  15.6437  15.8386  16.1217  17.8811  18.0246
    20.8576  21.1282

          k = 0.4000-0.5000-0.5000 (  1016 PWs)   bands (ev):

   -69.1922 -39.0048 -35.2956 -35.2956 -35.2907 -15.4833 -15.4833 -15.4501
    15.3823  15.4163  15.4216  15.4216  16.0504  16.0504  17.8063  17.9390
    21.0043  21.2847

          k =-0.5000-0.5000-0.5000 (  1064 PWs)   bands (ev):

   -69.1927 -39.0012 -35.2961 -35.2961 -35.2961 -15.4810 -15.4810 -15.4810
    15.5229  15.5229  15.5229  15.7570  15.7570  15.7570  17.8101  17.8101
    21.2927  21.2927

     the Fermi energy is    17.7563 ev

!    total energy              =    -448.57391181 Ry
     estimated scf accuracy    <          2.4E-09 Ry
     smearing contrib. (-TS)   =      -0.00004084 Ry
     internal energy E=F+TS    =    -448.57387097 Ry

     The total energy is F=E-TS. E is the sum of the following terms:
     one-electron contribution =    -151.35185435 Ry
     hartree contribution      =      91.64325347 Ry
     xc contribution           =     -52.89307289 Ry
     ewald contribution        =    -259.82070277 Ry
     one-center paw contrib.   =     -76.15149443 Ry

     convergence has been achieved in  31 iterations

     negative rho (up, down):  6.962E-04 0.000E+00

     Forces acting on atoms (cartesian axes, Ry/au):

     atom    1 type  1   force =     0.00000000    0.00000000    0.00000000
     atom    2 type  2   force =     0.00000000    0.00000000    0.00000000

     Total force =     0.000000     Total SCF correction =     0.000000


     Computing stress (Cartesian axis) and pressure


     negative rho (up, down):  6.962E-04 0.000E+00
          total   stress  (Ry/bohr**3)                   (kbar)     P=       -9.86
  -0.00006704   0.00000000   0.00000000           -9.86        0.00        0.00
   0.00000000  -0.00006704   0.00000000            0.00       -9.86        0.00
   0.00000000   0.00000000  -0.00006704            0.00        0.00       -9.86


     Writing all to output data dir ./out/TiFe2.save/ :
     XML data file, charge density, pseudopotentials, collected wavefunctions

     init_run     :      0.58s CPU      0.63s WALL (       1 calls)
     electrons    :     24.98s CPU     26.37s WALL (       1 calls)
     forces       :      0.14s CPU      0.14s WALL (       1 calls)
     stress       :      0.63s CPU      0.63s WALL (       1 calls)

     Called by init_run:
     wfcinit      :      0.25s CPU      0.27s WALL (       1 calls)
     potinit      :      0.11s CPU      0.13s WALL (       1 calls)
     hinit0       :      0.13s CPU      0.14s WALL (       1 calls)

     Called by electrons:
     c_bands      :     16.41s CPU     17.55s WALL (      31 calls)
     sum_band     :      3.81s CPU      4.02s WALL (      31 calls)
     v_of_rho     :      0.24s CPU      0.24s WALL (      32 calls)
     newd         :      1.59s CPU      1.61s WALL (      32 calls)
     PAW_pot      :      3.00s CPU      3.03s WALL (      32 calls)
     mix_rho      :      0.03s CPU      0.03s WALL (      31 calls)

     Called by c_bands:
     init_us_2    :      0.25s CPU      0.27s WALL (    3640 calls)
     cegterg      :     15.77s CPU     16.89s WALL (    1736 calls)

     Called by *egterg:
     cdiaghg      :      1.57s CPU      1.62s WALL (    5842 calls)
     h_psi        :     10.81s CPU     11.79s WALL (    5898 calls)
     s_psi        :      0.74s CPU      0.78s WALL (    5898 calls)
     g_psi        :      0.04s CPU      0.04s WALL (    4106 calls)

     Called by h_psi:
     h_psi:calbec :      0.84s CPU      0.92s WALL (    5898 calls)
     vloc_psi     :      9.19s CPU     10.03s WALL (    5898 calls)
     add_vuspsi   :      0.73s CPU      0.78s WALL (    5898 calls)

     General routines
     calbec       :      1.37s CPU      1.48s WALL (    8586 calls)
     fft          :      0.13s CPU      0.13s WALL (     439 calls)
     ffts         :      0.01s CPU      0.01s WALL (      63 calls)
     fftw         :      9.93s CPU     10.83s WALL (  180870 calls)
     interpolate  :      0.02s CPU      0.02s WALL (      32 calls)

     Parallel routines

     PWSCF        :     26.53s CPU     27.99s WALL


   This run was terminated on:   1: 1:56  30Oct2025            

=------------------------------------------------------------------------------=
   JOB DONE.
=------------------------------------------------------------------------------=
