
     Program PWSCF v.7.4.1 starts on 30Oct2025 at  1: 4: 4 

     This program is part of the open-source Quantum ESPRESSO suite
     for quantum simulation of materials; please cite
         "P. Giannozzi et al., J. Phys.:Condens. Matter 21 395502 (2009);
         "P. Giannozzi et al., J. Phys.:Condens. Matter 29 465901 (2017);
         "P. Giannozzi et al., J. Chem. Phys. 152 154105 (2020);
          URL http://www.quantum-espresso.org", 
     in publications or presentations arising from this work. More details at
     http://www.quantum-espresso.org/quote

     Parallel version (MPI), running on     4 processors

     MPI processes distributed on     1 nodes
     4980 MiB available memory on the printing compute node when the environment starts

     Reading input from TiFe6.in

     Current dimensions of program PWSCF are:
     Max number of different atomic species (ntypx) = 10
     Max number of k-points (npk) =  40000
     Max angular momentum in pseudopotentials (lmaxx) =  4
     file Fe.pbe-spn-kjpaw_psl.0.2.1.UPF: wavefunction(s)  3D renormalized

     IMPORTANT: XC functional enforced from input :
     Exchange-correlation= PBE
                           (   1   4   3   4   0   0   0)
     Any further DFT definition will be discarded
     Please, verify this is what you really want

     Message from routine setup:
     using ibrav=0 with symmetry is DISCOURAGED, use correct ibrav instead

     R & G space division:  proc/nbgrp/npool/nimage =       4
     Subspace diagonalization in iterative solution of the eigenvalue problem:
     a serial algorithm will be used


     Parallelization info
     --------------------
     sticks:   dense  smooth     PW     G-vecs:    dense   smooth      PW
     Min         554     220     68                19550     4959     821
     Max         555     223     70                19553     4960     822
     Sum        2217     885    277                78205    19837    3287

     Using Slab Decomposition



     bravais-lattice index     =            0
     lattice parameter (alat)  =       5.5533  a.u.
     unit-cell volume          =     171.2590 (a.u.)^3
     number of atoms/cell      =            2
     number of atomic types    =            2
     number of electrons       =        28.00
     number of Kohn-Sham states=           18
     kinetic-energy cutoff     =      90.0000  Ry
     charge density cutoff     =     900.0000  Ry
     scf convergence threshold =      1.0E-08
     mixing beta               =       0.7000
     number of iterations used =            8  plain     mixing
     Exchange-correlation= PBE
                           (   1   4   3   4   0   0   0)

     celldm(1)=   5.553300  celldm(2)=   0.000000  celldm(3)=   0.000000
     celldm(4)=   0.000000  celldm(5)=   0.000000  celldm(6)=   0.000000

     crystal axes: (cart. coord. in units of alat)
               a(1) = (   1.000000   0.000000   0.000000 )  
               a(2) = (   0.000000   1.000000   0.000000 )  
               a(3) = (   0.000000   0.000000   1.000000 )  

     reciprocal axes: (cart. coord. in units 2 pi/alat)
               b(1) = (  1.000000  0.000000  0.000000 )  
               b(2) = (  0.000000  1.000000  0.000000 )  
               b(3) = (  0.000000  0.000000  1.000000 )  


     PseudoPot. # 1 for Fe read from file:
     /home/rafi/QE/qe-7.4.1/pseudo/Fe.pbe-spn-kjpaw_psl.0.2.1.UPF
     MD5 check sum: e86618425769142926afa95317d90200
     Pseudo is Projector augmented-wave + core cor, Zval = 16.0
     Generated using "atomic" code by A. Dal Corso  v.5.0.99 svn rev. 10869
     Shape of augmentation charge: PSQ
     Using radial grid of 1191 points,  6 beta functions with: 
                l(1) =   0
                l(2) =   0
                l(3) =   1
                l(4) =   1
                l(5) =   2
                l(6) =   2
     Q(r) pseudized with 0 coefficients 


     PseudoPot. # 2 for Ti read from file:
     /home/rafi/QE/qe-7.4.1/pseudo/ti_pbe_v1.4.uspp.F.UPF
     MD5 check sum: 88a00a6731bd790ddea75d31a80cb452
     Pseudo is Ultrasoft + core correction, Zval = 12.0
     Generated by new atomic code, or converted to UPF format
     Using radial grid of  851 points,  6 beta functions with: 
                l(1) =   0
                l(2) =   0
                l(3) =   1
                l(4) =   1
                l(5) =   2
                l(6) =   2
     Q(r) pseudized with  6 coefficients,  rinner =    1.000   1.000   1.000
                                                       1.000   1.000

     atomic species   valence    mass     pseudopotential
     Fe               16.00    55.84500     Fe( 1.00)
     Ti               12.00    47.86700     Ti( 1.00)

     48 Sym. Ops., with inversion, found



   Cartesian axes

     site n.     atom                  positions (alat units)
         1        Fe     tau(   1) = (   0.5000000   0.5000000   0.5000000  )
         2        Ti     tau(   2) = (   0.0000000   0.0000000   0.0000000  )

     number of k points=    56  Marzari-Vanderbilt smearing, width (Ry)=  0.0050
                       cart. coord. in units 2pi/alat
        k(    1) = (   0.0000000   0.0000000   0.0000000), wk =   0.0020000
        k(    2) = (   0.0000000   0.0000000   0.1000000), wk =   0.0120000
        k(    3) = (   0.0000000   0.0000000   0.2000000), wk =   0.0120000
        k(    4) = (   0.0000000   0.0000000   0.3000000), wk =   0.0120000
        k(    5) = (   0.0000000   0.0000000   0.4000000), wk =   0.0120000
        k(    6) = (   0.0000000   0.0000000  -0.5000000), wk =   0.0060000
        k(    7) = (   0.0000000   0.1000000   0.1000000), wk =   0.0240000
        k(    8) = (   0.0000000   0.1000000   0.2000000), wk =   0.0480000
        k(    9) = (   0.0000000   0.1000000   0.3000000), wk =   0.0480000
        k(   10) = (   0.0000000   0.1000000   0.4000000), wk =   0.0480000
        k(   11) = (   0.0000000   0.1000000  -0.5000000), wk =   0.0240000
        k(   12) = (   0.0000000   0.2000000   0.2000000), wk =   0.0240000
        k(   13) = (   0.0000000   0.2000000   0.3000000), wk =   0.0480000
        k(   14) = (   0.0000000   0.2000000   0.4000000), wk =   0.0480000
        k(   15) = (   0.0000000   0.2000000  -0.5000000), wk =   0.0240000
        k(   16) = (   0.0000000   0.3000000   0.3000000), wk =   0.0240000
        k(   17) = (   0.0000000   0.3000000   0.4000000), wk =   0.0480000
        k(   18) = (   0.0000000   0.3000000  -0.5000000), wk =   0.0240000
        k(   19) = (   0.0000000   0.4000000   0.4000000), wk =   0.0240000
        k(   20) = (   0.0000000   0.4000000  -0.5000000), wk =   0.0240000
        k(   21) = (   0.0000000  -0.5000000  -0.5000000), wk =   0.0060000
        k(   22) = (   0.1000000   0.1000000   0.1000000), wk =   0.0160000
        k(   23) = (   0.1000000   0.1000000   0.2000000), wk =   0.0480000
        k(   24) = (   0.1000000   0.1000000   0.3000000), wk =   0.0480000
        k(   25) = (   0.1000000   0.1000000   0.4000000), wk =   0.0480000
        k(   26) = (   0.1000000   0.1000000  -0.5000000), wk =   0.0240000
        k(   27) = (   0.1000000   0.2000000   0.2000000), wk =   0.0480000
        k(   28) = (   0.1000000   0.2000000   0.3000000), wk =   0.0960000
        k(   29) = (   0.1000000   0.2000000   0.4000000), wk =   0.0960000
        k(   30) = (   0.1000000   0.2000000  -0.5000000), wk =   0.0480000
        k(   31) = (   0.1000000   0.3000000   0.3000000), wk =   0.0480000
        k(   32) = (   0.1000000   0.3000000   0.4000000), wk =   0.0960000
        k(   33) = (   0.1000000   0.3000000  -0.5000000), wk =   0.0480000
        k(   34) = (   0.1000000   0.4000000   0.4000000), wk =   0.0480000
        k(   35) = (   0.1000000   0.4000000  -0.5000000), wk =   0.0480000
        k(   36) = (   0.1000000  -0.5000000  -0.5000000), wk =   0.0120000
        k(   37) = (   0.2000000   0.2000000   0.2000000), wk =   0.0160000
        k(   38) = (   0.2000000   0.2000000   0.3000000), wk =   0.0480000
        k(   39) = (   0.2000000   0.2000000   0.4000000), wk =   0.0480000
        k(   40) = (   0.2000000   0.2000000  -0.5000000), wk =   0.0240000
        k(   41) = (   0.2000000   0.3000000   0.3000000), wk =   0.0480000
        k(   42) = (   0.2000000   0.3000000   0.4000000), wk =   0.0960000
        k(   43) = (   0.2000000   0.3000000  -0.5000000), wk =   0.0480000
        k(   44) = (   0.2000000   0.4000000   0.4000000), wk =   0.0480000
        k(   45) = (   0.2000000   0.4000000  -0.5000000), wk =   0.0480000
        k(   46) = (   0.2000000  -0.5000000  -0.5000000), wk =   0.0120000
        k(   47) = (   0.3000000   0.3000000   0.3000000), wk =   0.0160000
        k(   48) = (   0.3000000   0.3000000   0.4000000), wk =   0.0480000
        k(   49) = (   0.3000000   0.3000000  -0.5000000), wk =   0.0240000
        k(   50) = (   0.3000000   0.4000000   0.4000000), wk =   0.0480000
        k(   51) = (   0.3000000   0.4000000  -0.5000000), wk =   0.0480000
        k(   52) = (   0.3000000  -0.5000000  -0.5000000), wk =   0.0120000
        k(   53) = (   0.4000000   0.4000000   0.4000000), wk =   0.0160000
        k(   54) = (   0.4000000   0.4000000  -0.5000000), wk =   0.0240000
        k(   55) = (   0.4000000  -0.5000000  -0.5000000), wk =   0.0120000
        k(   56) = (  -0.5000000  -0.5000000  -0.5000000), wk =   0.0020000

     Dense  grid:    78205 G-vectors     FFT dimensions: (  54,  54,  54)

     Smooth grid:    19837 G-vectors     FFT dimensions: (  36,  36,  36)

     Estimated max dynamical RAM per process >      86.20 MB

     Estimated total dynamical RAM >     344.78 MB

     Check: negative core charge=   -0.000004

     Initial potential from superposition of free atoms

     starting charge      26.9995, renormalised to      28.0000

     negative rho (up, down):  1.357E-03 0.000E+00
     Starting wfcs are   23 randomized atomic wfcs
     Checking if some PAW data can be deallocated... 

     total cpu time spent up to now is        1.5 secs

     Self-consistent Calculation

     iteration #  1     ecut=    90.00 Ry     beta= 0.70
     Davidson diagonalization with overlap
     ethr =  1.00E-02,  avg # of iterations =  2.2

     negative rho (up, down):  1.711E-04 0.000E+00

     total cpu time spent up to now is        3.5 secs

     total energy              =    -434.90522688 Ry
     estimated scf accuracy    <      17.44962676 Ry

     iteration #  2     ecut=    90.00 Ry     beta= 0.70
     Davidson diagonalization with overlap
     ethr =  1.00E-02,  avg # of iterations =  6.1

     negative rho (up, down):  5.600E-05 0.000E+00

     total cpu time spent up to now is        6.7 secs

     WARNING: integrated charge=    28.00014000, expected=    28.00000000

     total energy              =    -448.53179140 Ry
     estimated scf accuracy    <      65.98232458 Ry

     iteration #  3     ecut=    90.00 Ry     beta= 0.70
     Davidson diagonalization with overlap
     ethr =  1.00E-02,  avg # of iterations =  3.1

     negative rho (up, down):  2.181E-04 0.000E+00

     total cpu time spent up to now is        9.1 secs

     WARNING: integrated charge=    28.00001945, expected=    28.00000000

     total energy              =    -448.58802034 Ry
     estimated scf accuracy    <      16.76452367 Ry

     iteration #  4     ecut=    90.00 Ry     beta= 0.70
     Davidson diagonalization with overlap
     ethr =  1.00E-02,  avg # of iterations =  2.1

     negative rho (up, down):  2.558E-04 0.000E+00

     total cpu time spent up to now is       11.0 secs

     WARNING: integrated charge=    28.00002075, expected=    28.00000000

     total energy              =    -449.10598915 Ry
     estimated scf accuracy    <       4.82452444 Ry

     iteration #  5     ecut=    90.00 Ry     beta= 0.70
     Davidson diagonalization with overlap
     ethr =  1.00E-02,  avg # of iterations =  1.0

     negative rho (up, down):  2.850E-04 0.000E+00

     total cpu time spent up to now is       12.6 secs

     WARNING: integrated charge=    28.00002375, expected=    28.00000000

     total energy              =    -449.11969152 Ry
     estimated scf accuracy    <       4.38639026 Ry

     iteration #  6     ecut=    90.00 Ry     beta= 0.70
     Davidson diagonalization with overlap
     ethr =  1.00E-02,  avg # of iterations =  1.1

     negative rho (up, down):  9.235E-04 0.000E+00

     total cpu time spent up to now is       14.2 secs

     total energy              =    -447.91669310 Ry
     estimated scf accuracy    <       4.50696625 Ry

     iteration #  7     ecut=    90.00 Ry     beta= 0.70
     Davidson diagonalization with overlap
     ethr =  1.00E-02,  avg # of iterations =  3.1

     negative rho (up, down):  8.054E-04 0.000E+00

     total cpu time spent up to now is       16.1 secs

     total energy              =    -448.56062040 Ry
     estimated scf accuracy    <       2.82333970 Ry

     iteration #  8     ecut=    90.00 Ry     beta= 0.70
     Davidson diagonalization with overlap
     ethr =  1.00E-02,  avg # of iterations =  1.0

     negative rho (up, down):  6.824E-04 0.000E+00

     total cpu time spent up to now is       17.7 secs

     WARNING: integrated charge=    28.00000412, expected=    28.00000000

     total energy              =    -448.53546551 Ry
     estimated scf accuracy    <       0.70574556 Ry

     iteration #  9     ecut=    90.00 Ry     beta= 0.70
     Davidson diagonalization with overlap
     ethr =  2.52E-03,  avg # of iterations =  1.8

     negative rho (up, down):  6.978E-04 0.000E+00

     total cpu time spent up to now is       19.4 secs

     WARNING: integrated charge=    28.00000646, expected=    28.00000000

     total energy              =    -448.59231962 Ry
     estimated scf accuracy    <       0.08439430 Ry

     iteration # 10     ecut=    90.00 Ry     beta= 0.70
     Davidson diagonalization with overlap
     ethr =  3.01E-04,  avg # of iterations =  2.6

     negative rho (up, down):  5.480E-04 0.000E+00

     total cpu time spent up to now is       21.2 secs

     WARNING: integrated charge=    28.00000353, expected=    28.00000000

     total energy              =    -448.67854733 Ry
     estimated scf accuracy    <       0.05405615 Ry

     iteration # 11     ecut=    90.00 Ry     beta= 0.70
     Davidson diagonalization with overlap
     ethr =  1.93E-04,  avg # of iterations =  4.4

     negative rho (up, down):  1.814E-03 0.000E+00

     total cpu time spent up to now is       23.5 secs

     WARNING: integrated charge=    27.99999438, expected=    28.00000000

     total energy              =    -448.25791624 Ry
     estimated scf accuracy    <       1.01758085 Ry

     iteration # 12     ecut=    90.00 Ry     beta= 0.70
     Davidson diagonalization with overlap
     ethr =  1.93E-04,  avg # of iterations =  7.3

     negative rho (up, down):  7.431E-04 0.000E+00

     total cpu time spent up to now is       27.0 secs

     WARNING: integrated charge=    28.00000487, expected=    28.00000000

     total energy              =    -447.39144311 Ry
     estimated scf accuracy    <      19.62055445 Ry

     iteration # 13     ecut=    90.00 Ry     beta= 0.70
     Davidson diagonalization with overlap
     ethr =  1.93E-04,  avg # of iterations =  6.6

     negative rho (up, down):  1.653E-03 0.000E+00

     total cpu time spent up to now is       29.9 secs

     WARNING: integrated charge=    27.99999376, expected=    28.00000000

     total energy              =    -448.56477088 Ry
     estimated scf accuracy    <       0.18249711 Ry

     iteration # 14     ecut=    90.00 Ry     beta= 0.70
     Davidson diagonalization with overlap
     ethr =  1.93E-04,  avg # of iterations =  6.1

     negative rho (up, down):  7.780E-04 0.000E+00

     total cpu time spent up to now is       32.8 secs

     total energy              =    -447.83152205 Ry
     estimated scf accuracy    <      12.78590209 Ry

     iteration # 15     ecut=    90.00 Ry     beta= 0.70
     Davidson diagonalization with overlap
     ethr =  1.93E-04,  avg # of iterations =  6.1

     negative rho (up, down):  7.913E-04 0.000E+00

     total cpu time spent up to now is       35.6 secs

     total energy              =    -448.58822943 Ry
     estimated scf accuracy    <       0.14018366 Ry

     iteration # 16     ecut=    90.00 Ry     beta= 0.70
     Davidson diagonalization with overlap
     ethr =  1.93E-04,  avg # of iterations =  1.0

     negative rho (up, down):  8.035E-04 0.000E+00

     total cpu time spent up to now is       37.2 secs

     total energy              =    -448.58386839 Ry
     estimated scf accuracy    <       0.07395025 Ry

     iteration # 17     ecut=    90.00 Ry     beta= 0.70
     Davidson diagonalization with overlap
     ethr =  1.93E-04,  avg # of iterations =  1.1

     negative rho (up, down):  8.202E-04 0.000E+00

     total cpu time spent up to now is       38.8 secs

     total energy              =    -448.58467263 Ry
     estimated scf accuracy    <       0.01235111 Ry

     iteration # 18     ecut=    90.00 Ry     beta= 0.70
     Davidson diagonalization with overlap
     ethr =  4.41E-05,  avg # of iterations =  2.2

     negative rho (up, down):  7.920E-04 0.000E+00

     total cpu time spent up to now is       40.5 secs

     total energy              =    -448.58567960 Ry
     estimated scf accuracy    <       0.00017950 Ry

     iteration # 19     ecut=    90.00 Ry     beta= 0.70
     Davidson diagonalization with overlap
     ethr =  6.41E-07,  avg # of iterations =  6.7

     negative rho (up, down):  7.909E-04 0.000E+00

     total cpu time spent up to now is       43.6 secs

     total energy              =    -448.58426852 Ry
     estimated scf accuracy    <       0.01859899 Ry

     iteration # 20     ecut=    90.00 Ry     beta= 0.70
     Davidson diagonalization with overlap
     ethr =  6.41E-07,  avg # of iterations =  4.9

     negative rho (up, down):  7.841E-04 0.000E+00

     total cpu time spent up to now is       45.8 secs

     total energy              =    -448.58564295 Ry
     estimated scf accuracy    <       0.00283591 Ry

     iteration # 21     ecut=    90.00 Ry     beta= 0.70
     Davidson diagonalization with overlap
     ethr =  6.41E-07,  avg # of iterations =  4.4

     negative rho (up, down):  7.842E-04 0.000E+00

     total cpu time spent up to now is       47.8 secs

     total energy              =    -448.58591318 Ry
     estimated scf accuracy    <       0.00049838 Ry

     iteration # 22     ecut=    90.00 Ry     beta= 0.70
     Davidson diagonalization with overlap
     ethr =  6.41E-07,  avg # of iterations =  1.7

     negative rho (up, down):  7.904E-04 0.000E+00

     total cpu time spent up to now is       49.5 secs

     total energy              =    -448.58587103 Ry
     estimated scf accuracy    <       0.00142738 Ry

     iteration # 23     ecut=    90.00 Ry     beta= 0.70
     Davidson diagonalization with overlap
     ethr =  6.41E-07,  avg # of iterations =  1.1

     negative rho (up, down):  8.030E-04 0.000E+00

     total cpu time spent up to now is       51.1 secs

     total energy              =    -448.58572649 Ry
     estimated scf accuracy    <       0.00073962 Ry

     iteration # 24     ecut=    90.00 Ry     beta= 0.70
     Davidson diagonalization with overlap
     ethr =  6.41E-07,  avg # of iterations =  3.7

     negative rho (up, down):  8.022E-04 0.000E+00

     total cpu time spent up to now is       53.0 secs

     total energy              =    -448.58578083 Ry
     estimated scf accuracy    <       0.00020351 Ry

     iteration # 25     ecut=    90.00 Ry     beta= 0.70
     Davidson diagonalization with overlap
     ethr =  6.41E-07,  avg # of iterations =  2.7

     negative rho (up, down):  8.044E-04 0.000E+00

     total cpu time spent up to now is       54.8 secs

     total energy              =    -448.58580738 Ry
     estimated scf accuracy    <       0.00015458 Ry

     iteration # 26     ecut=    90.00 Ry     beta= 0.70
     Davidson diagonalization with overlap
     ethr =  5.52E-07,  avg # of iterations =  1.2

     negative rho (up, down):  8.044E-04 0.000E+00

     total cpu time spent up to now is       56.5 secs

     total energy              =    -448.58581772 Ry
     estimated scf accuracy    <       0.00002323 Ry

     iteration # 27     ecut=    90.00 Ry     beta= 0.70
     Davidson diagonalization with overlap
     ethr =  8.30E-08,  avg # of iterations =  2.2

     negative rho (up, down):  8.054E-04 0.000E+00

     total cpu time spent up to now is       58.3 secs

     total energy              =    -448.58580461 Ry
     estimated scf accuracy    <       0.00002570 Ry

     iteration # 28     ecut=    90.00 Ry     beta= 0.70
     Davidson diagonalization with overlap
     ethr =  8.30E-08,  avg # of iterations =  2.0

     negative rho (up, down):  8.042E-04 0.000E+00

     total cpu time spent up to now is       60.2 secs

     total energy              =    -448.58580966 Ry
     estimated scf accuracy    <       0.00000440 Ry

     iteration # 29     ecut=    90.00 Ry     beta= 0.70
     Davidson diagonalization with overlap
     ethr =  1.57E-08,  avg # of iterations =  4.1

     negative rho (up, down):  8.054E-04 0.000E+00

     total cpu time spent up to now is       62.5 secs

     total energy              =    -448.58581770 Ry
     estimated scf accuracy    <       0.00005740 Ry

     iteration # 30     ecut=    90.00 Ry     beta= 0.70
     Davidson diagonalization with overlap
     ethr =  1.57E-08,  avg # of iterations =  2.0

     negative rho (up, down):  8.032E-04 0.000E+00

     total cpu time spent up to now is       64.3 secs

     total energy              =    -448.58580083 Ry
     estimated scf accuracy    <       0.00011123 Ry

     iteration # 31     ecut=    90.00 Ry     beta= 0.70
     Davidson diagonalization with overlap
     ethr =  1.57E-08,  avg # of iterations =  4.7

     negative rho (up, down):  8.034E-04 0.000E+00

     total cpu time spent up to now is       66.4 secs

     total energy              =    -448.58580820 Ry
     estimated scf accuracy    <       0.00000050 Ry

     iteration # 32     ecut=    90.00 Ry     beta= 0.70
     Davidson diagonalization with overlap
     ethr =  1.79E-09,  avg # of iterations =  2.8

     negative rho (up, down):  8.033E-04 0.000E+00

     total cpu time spent up to now is       68.2 secs

     total energy              =    -448.58580829 Ry
     estimated scf accuracy    <       0.00000061 Ry

     iteration # 33     ecut=    90.00 Ry     beta= 0.70
     Davidson diagonalization with overlap
     ethr =  1.79E-09,  avg # of iterations =  1.0

     negative rho (up, down):  8.032E-04 0.000E+00

     total cpu time spent up to now is       69.9 secs

     total energy              =    -448.58580827 Ry
     estimated scf accuracy    <       0.00000022 Ry

     iteration # 34     ecut=    90.00 Ry     beta= 0.70
     Davidson diagonalization with overlap
     ethr =  8.00E-10,  avg # of iterations =  1.7

     negative rho (up, down):  8.032E-04 0.000E+00

     total cpu time spent up to now is       71.6 secs

     End of self-consistent calculation

          k = 0.0000 0.0000 0.0000 (  2517 PWs)   bands (ev):

   -69.2082 -39.1187 -35.2697 -35.2697 -35.2697 -15.2146 -15.2146 -15.2146
    10.1533  13.8673  13.8673  16.6597  16.6597  16.6597  19.0112  19.0112
    20.9601  20.9601

          k = 0.0000 0.0000 0.1000 (  2477 PWs)   bands (ev):

   -69.2078 -39.1161 -35.2726 -35.2692 -35.2692 -15.2499 -15.2125 -15.2125
    10.3622  13.9677  13.9751  16.6443  16.6443  16.7052  18.8837  19.0586
    20.6603  20.6603

          k = 0.0000 0.0000 0.2000 (  2473 PWs)   bands (ev):

   -69.2069 -39.1094 -35.2805 -35.2679 -35.2679 -15.3414 -15.2070 -15.2070
    10.9638  14.2452  14.2601  16.6110  16.6110  16.8306  18.5184  19.1563
    19.9924  19.9924

          k = 0.0000 0.0000 0.3000 (  2485 PWs)   bands (ev):

   -69.2059 -39.1011 -35.2902 -35.2664 -35.2664 -15.4530 -15.2001 -15.2001
    11.8816  14.5157  14.7124  16.5874  16.5874  17.0009  17.9718  19.1421
    19.3006  19.3006

          k = 0.0000 0.0000 0.4000 (  2464 PWs)   bands (ev):

   -69.2050 -39.0945 -35.2979 -35.2652 -35.2652 -15.5421 -15.1946 -15.1946
    12.9681  14.5187  15.2399  16.5884  16.5884  17.1549  17.3650  18.7967
    18.7967  18.8386

          k = 0.0000 0.0000-0.5000 (  2496 PWs)   bands (ev):

   -69.2047 -39.0919 -35.3009 -35.2648 -35.2648 -15.5759 -15.1925 -15.1925
    13.8518  14.0911  15.5493  16.5955  16.5955  17.0246  17.2187  18.6021
    18.6106  18.6106

          k = 0.0000 0.1000 0.1000 (  2482 PWs)   bands (ev):

   -69.2075 -39.1133 -35.2738 -35.2709 -35.2687 -15.2511 -15.2436 -15.2103
    10.5659  14.0615  14.0844  16.5454  16.6176  16.8171  18.8694  19.0239
    20.3431  20.3614

          k = 0.0000 0.1000 0.2000 (  2474 PWs)   bands (ev):

   -69.2066 -39.1062 -35.2811 -35.2709 -35.2675 -15.3382 -15.2404 -15.2044
    11.1511  14.3123  14.3778  16.4523  16.5549  16.9415  18.5983  19.1100
    19.7221  19.7873

          k = 0.0000 0.1000 0.3000 (  2477 PWs)   bands (ev):

   -69.2055 -39.0973 -35.2910 -35.2702 -35.2660 -15.4484 -15.2325 -15.1972
    12.0374  14.5821  14.7892  16.4113  16.4883  16.9998  18.1497  18.9318
    19.3039  19.3268

          k = 0.0000 0.1000 0.4000 (  2466 PWs)   bands (ev):

   -69.2046 -39.0901 -35.2989 -35.2696 -35.2648 -15.5364 -15.2260 -15.1914
    13.0732  14.5708  15.2639  16.4262  16.4341  16.9486  17.6905  18.4891
    19.0523  19.1732

          k = 0.0000 0.1000-0.5000 (  2472 PWs)   bands (ev):

   -69.2043 -39.0874 -35.3020 -35.2694 -35.2643 -15.5697 -15.2235 -15.1891
    13.8873  14.1697  15.5387  16.3629  16.4683  16.8874  17.4909  18.2968
    18.9941  19.0345

          k = 0.0000 0.2000 0.2000 (  2482 PWs)   bands (ev):

   -69.2057 -39.0977 -35.2846 -35.2770 -35.2663 -15.3382 -15.3190 -15.1978
    11.6811  14.4576  14.7149  16.2473  16.4376  16.9750  18.6927  19.0695
    19.1618  19.5096

          k = 0.0000 0.2000 0.3000 (  2471 PWs)   bands (ev):

   -69.2047 -39.0872 -35.2934 -35.2799 -35.2649 -15.4364 -15.3163 -15.1896
    12.4553  14.5842  15.1531  16.1168  16.3547  16.8039  18.5181  18.6543
    19.2404  19.4500

          k = 0.0000 0.2000 0.4000 (  2476 PWs)   bands (ev):

   -69.2038 -39.0788 -35.3018 -35.2811 -35.2638 -15.5214 -15.3076 -15.1830
    13.2983  14.5094  15.5474  16.1011  16.3940  16.5251  18.2066  18.3883
    19.3834  19.5785

          k = 0.0000 0.2000-0.5000 (  2480 PWs)   bands (ev):

   -69.2035 -39.0755 -35.3050 -35.2815 -35.2633 -15.5536 -15.3042 -15.1805
    13.8608  14.2426  15.7164  16.1630  16.3442  16.4710  18.1421  18.1923
    19.4153  19.6779

          k = 0.0000 0.3000 0.3000 (  2470 PWs)   bands (ev):

   -69.2036 -39.0748 -35.2980 -35.2904 -35.2636 -15.4296 -15.4107 -15.1802
    12.9892  14.4733  15.6951  15.8845  16.3994  16.4423  18.5207  18.8392
    19.1307  19.7650

          k = 0.0000 0.3000 0.4000 (  2483 PWs)   bands (ev):

   -69.2027 -39.0646 -35.3053 -35.2952 -35.2625 -15.5029 -15.4072 -15.1726
    13.4478  14.2813  15.7857  16.0917  16.1607  16.7682  18.3521  18.8594
    19.3431  20.1181

          k = 0.0000 0.3000-0.5000 (  2474 PWs)   bands (ev):

   -69.2024 -39.0608 -35.3088 -35.2964 -35.2621 -15.5337 -15.4028 -15.1697
    13.6623  14.1448  15.8272  15.8862  16.3141  17.1725  18.0907  18.8625
    19.5235  20.3183

          k = 0.0000 0.4000 0.4000 (  2462 PWs)   bands (ev):

   -69.2019 -39.0531 -35.3089 -35.3060 -35.2614 -15.4909 -15.4837 -15.1642
    13.4640  14.0818  15.5980  15.7584  16.8933  17.3514  18.5859  19.0579
    19.2682  20.5478

          k = 0.0000 0.4000-0.5000 (  2468 PWs)   bands (ev):

   -69.2016 -39.0487 -35.3119 -35.3085 -35.2610 -15.5176 -15.4815 -15.1610
    13.4500  14.0077  15.5801  15.5915  17.1834  18.0961  18.1440  19.1997
    19.3341  20.7682

          k = 0.0000-0.5000-0.5000 (  2464 PWs)   bands (ev):

   -69.2012 -39.0441 -35.3131 -35.3131 -35.2606 -15.5114 -15.5114 -15.1576
    13.3652  13.9513  15.4904  15.4904  17.7655  18.1972  18.7169  18.7169
    19.4579  20.9307

          k = 0.1000 0.1000 0.1000 (  2466 PWs)   bands (ev):

   -69.2071 -39.1104 -35.2733 -35.2733 -35.2694 -15.2514 -15.2415 -15.2415
    10.7656  14.1726  14.1726  16.5163  16.5163  16.8990  18.9342  18.9342
    19.8714  20.6344

          k = 0.1000 0.1000 0.2000 (  2473 PWs)   bands (ev):

   -69.2063 -39.1029 -35.2814 -35.2720 -35.2695 -15.3350 -15.2396 -15.2358
    11.3371  14.4269  14.4479  16.3884  16.4403  16.9562  18.6781  19.0685
    19.4060  19.9646

          k = 0.1000 0.1000 0.3000 (  2479 PWs)   bands (ev):

   -69.2052 -39.0935 -35.2916 -35.2705 -35.2694 -15.4439 -15.2302 -15.2288
    12.1968  14.7063  14.8116  16.3377  16.3382  16.8865  18.3033  18.9281
    19.2894  19.3772

          k = 0.1000 0.1000 0.4000 (  2468 PWs)   bands (ev):

   -69.2043 -39.0859 -35.2998 -35.2692 -35.2692 -15.5310 -15.2232 -15.2226
    13.1895  14.6627  15.2444  16.2078  16.4174  16.7666  17.9267  18.5948
    18.8169  19.5642

          k = 0.1000 0.1000-0.5000 (  2480 PWs)   bands (ev):

   -69.2040 -39.0830 -35.3030 -35.2692 -35.2687 -15.5640 -15.2210 -15.2196
    13.9494  14.2673  15.4941  16.0999  16.5428  16.6873  17.7572  18.3704
    18.6487  19.6888

          k = 0.1000 0.2000 0.2000 (  2481 PWs)   bands (ev):

   -69.2054 -39.0942 -35.2841 -35.2779 -35.2697 -15.3340 -15.3167 -15.2306
    11.8622  14.5874  14.7670  16.2010  16.3095  16.8245  18.7769  19.0442
    19.2045  19.6790

          k = 0.1000 0.2000 0.3000 (  2463 PWs)   bands (ev):

   -69.2043 -39.0834 -35.2934 -35.2800 -35.2690 -15.4323 -15.3133 -15.2218
    12.6249  14.7340  15.1556  16.0619  16.2162  16.5702  18.6393  18.8362
    19.2258  19.5768

          k = 0.1000 0.2000 0.4000 (  2468 PWs)   bands (ev):

   -69.2035 -39.0747 -35.3022 -35.2807 -35.2682 -15.5168 -15.3046 -15.2146
    13.4456  14.6574  15.4534  15.9833  16.2800  16.4362  18.4002  18.4745
    19.0334  20.0427

          k = 0.1000 0.2000-0.5000 (  2472 PWs)   bands (ev):

   -69.2031 -39.0713 -35.3055 -35.2810 -35.2679 -15.5488 -15.3013 -15.2119
    13.9845  14.3818  15.5815  15.9418  16.2959  16.5313  18.2042  18.3560
    18.8911  20.4138

          k = 0.1000 0.3000 0.3000 (  2480 PWs)   bands (ev):

   -69.2033 -39.0709 -35.2975 -35.2907 -35.2679 -15.4252 -15.4083 -15.2122
    13.1685  14.6237  15.6877  15.8415  16.2027  16.2541  18.6258  18.9933
    19.0883  19.9877

          k = 0.1000 0.3000 0.4000 (  2482 PWs)   bands (ev):

   -69.2024 -39.0608 -35.3052 -35.2949 -35.2669 -15.4992 -15.4044 -15.2044
    13.6192  14.4312  15.7342  15.8964  16.1731  16.6030  18.3888  18.9389
    19.1385  20.5291

          k = 0.1000 0.3000-0.5000 (  2470 PWs)   bands (ev):

   -69.2021 -39.0569 -35.3088 -35.2959 -35.2665 -15.5301 -15.4001 -15.2014
    13.8183  14.2996  15.7536  15.7672  16.2731  17.0257  18.1124  18.9943
    19.0307  20.7101

          k = 0.1000 0.4000 0.4000 (  2475 PWs)   bands (ev):

   -69.2016 -39.0495 -35.3083 -35.3057 -35.2659 -15.4878 -15.4814 -15.1961
    13.6332  14.2343  15.5662  15.6951  16.8193  17.1328  18.4671  18.8180
    19.3728  20.8231

          k = 0.1000 0.4000-0.5000 (  2466 PWs)   bands (ev):

   -69.2012 -39.0452 -35.3114 -35.3079 -35.2655 -15.5149 -15.4791 -15.1930
    13.6141  14.1626  15.5463  15.5534  17.0830  17.8060  18.0884  18.7799
    19.4430  20.9291

          k = 0.1000-0.5000-0.5000 (  2472 PWs)   bands (ev):

   -69.2009 -39.0407 -35.3125 -35.3125 -35.2651 -15.5091 -15.5091 -15.1897
    13.5310  14.1055  15.4650  15.4650  17.7692  18.1983  18.2058  18.2058
    19.5622  21.5828

          k = 0.2000 0.2000 0.2000 (  2467 PWs)   bands (ev):

   -69.2045 -39.0848 -35.2827 -35.2827 -35.2758 -15.3278 -15.3108 -15.3108
    12.3688  14.9113  14.9113  16.0809  16.0809  16.4315  18.9671  18.9671
    19.4623  19.9329

          k = 0.2000 0.2000 0.3000 (  2468 PWs)   bands (ev):

   -69.2035 -39.0733 -35.2937 -35.2810 -35.2784 -15.4216 -15.3072 -15.3035
    13.0845  15.1122  15.1617  15.9293  15.9533  16.1236  18.8452  18.9690
    19.3187  19.9275

          k = 0.2000 0.2000 0.4000 (  2467 PWs)   bands (ev):

   -69.2026 -39.0640 -35.3033 -35.2799 -35.2797 -15.5047 -15.2976 -15.2960
    13.8043  14.9413  15.3133  15.7851  16.0495  16.2666  18.5592  18.7090
    18.9273  20.4841

          k = 0.2000 0.2000-0.5000 (  2474 PWs)   bands (ev):

   -69.2023 -39.0604 -35.3070 -35.2804 -35.2792 -15.5362 -15.2953 -15.2917
    14.2314  14.6418  15.4190  15.7054  16.1282  16.4996  18.2215  18.6363
    18.8079  20.5936

          k = 0.2000 0.3000 0.3000 (  2472 PWs)   bands (ev):

   -69.2024 -39.0608 -35.2960 -35.2915 -35.2791 -15.4135 -15.4023 -15.2953
    13.6650  15.0191  15.6535  15.7400  15.7732  15.8884  18.7372  18.9283
    19.4201  20.1875

          k = 0.2000 0.3000 0.4000 (  2473 PWs)   bands (ev):

   -69.2016 -39.0507 -35.3048 -35.2940 -35.2785 -15.4897 -15.3971 -15.2871
    14.0910  14.7995  15.5838  15.6411  15.9954  16.2835  18.4332  18.6945
    19.4000  20.5241

          k = 0.2000 0.3000-0.5000 (  2460 PWs)   bands (ev):

   -69.2013 -39.0468 -35.3087 -35.2944 -35.2782 -15.5206 -15.3932 -15.2839
    14.2386  14.6711  15.5422  15.6098  16.0960  16.6868  18.1156  18.5992
    19.3715  20.6977

          k = 0.2000 0.4000 0.4000 (  2467 PWs)   bands (ev):

   -69.2007 -39.0399 -35.3067 -35.3049 -35.2774 -15.4796 -15.4754 -15.2791
    14.1111  14.6223  15.4920  15.5672  16.5812  16.5881  18.3640  18.4148
    19.7070  20.7843

          k = 0.2000 0.4000-0.5000 (  2472 PWs)   bands (ev):

   -69.2004 -39.0357 -35.3102 -35.3063 -35.2770 -15.5079 -15.4729 -15.2761
    14.0772  14.5601  15.4705  15.4747  16.7326  17.1359  18.0228  18.3746
    19.7736  20.9840

          k = 0.2000-0.5000-0.5000 (  2456 PWs)   bands (ev):

   -69.2001 -39.0315 -35.3108 -35.3108 -35.2765 -15.5031 -15.5031 -15.2731
    14.0021  14.5080  15.4088  15.4088  17.3554  17.3554  17.7790  18.1835
    19.8818  21.2327

          k = 0.3000 0.3000 0.3000 (  2473 PWs)   bands (ev):

   -69.2014 -39.0483 -35.2941 -35.2941 -35.2913 -15.4011 -15.3948 -15.3948
    14.3120  15.2848  15.5698  15.5698  15.6455  15.6455  18.6744  18.6744
    19.9781  19.9781

          k = 0.3000 0.3000 0.4000 (  2452 PWs)   bands (ev):

   -69.2005 -39.0381 -35.3045 -35.2929 -35.2926 -15.4781 -15.3887 -15.3872
    14.6598  15.0421  15.4876  15.5725  15.7254  16.0901  18.3379  18.4737
    19.9117  20.5340

          k = 0.3000 0.3000-0.5000 (  2444 PWs)   bands (ev):

   -69.2002 -39.0342 -35.3087 -35.2932 -35.2920 -15.5088 -15.3864 -15.3828
    14.6723  14.9573  15.4584  15.5394  15.8958  16.4317  18.0384  18.4039
    19.8977  20.7768

          k = 0.3000 0.4000 0.4000 (  2447 PWs)   bands (ev):

   -69.1997 -39.0279 -35.3047 -35.3040 -35.2917 -15.4694 -15.4679 -15.3805
    14.7736  15.0339  15.4277  15.5520  16.0102  16.2115  18.1571  18.2611
    20.2451  20.8077

          k = 0.3000 0.4000-0.5000 (  2456 PWs)   bands (ev):

   -69.1994 -39.0241 -35.3088 -35.3043 -35.2912 -15.4992 -15.4651 -15.3776
    14.7245  14.9992  15.4338  15.4493  16.2194  16.5016  17.9312  18.2045
    20.3030  21.0378

          k = 0.3000-0.5000-0.5000 (  2460 PWs)   bands (ev):

   -69.1991 -39.0202 -35.3088 -35.3088 -35.2907 -15.4956 -15.4956 -15.3749
    14.6887  14.9968  15.3723  15.3723  16.5974  16.5974  17.7911  18.1053
    20.4066  21.2582

          k = 0.4000 0.4000 0.4000 (  2458 PWs)   bands (ev):

   -69.1989 -39.0183 -35.3033 -35.3031 -35.3031 -15.4618 -15.4618 -15.4609
    15.0745  15.4324  15.4324  15.6552  15.8432  15.8432  18.0464  18.0464
    20.8390  20.8390

          k = 0.4000 0.4000-0.5000 (  2446 PWs)   bands (ev):

   -69.1985 -39.0146 -35.3076 -35.3029 -35.3025 -15.4922 -15.4594 -15.4581
    15.1917  15.2364  15.5119  15.6254  15.8267  16.1011  17.8751  18.0174
    20.8521  21.1225

          k = 0.4000-0.5000-0.5000 (  2468 PWs)   bands (ev):

   -69.1982 -39.0110 -35.3071 -35.3071 -35.3022 -15.4895 -15.4895 -15.4563
    15.3777  15.3967  15.4138  15.4138  16.0290  16.0290  17.8010  17.9326
    20.9988  21.2789

          k =-0.5000-0.5000-0.5000 (  2440 PWs)   bands (ev):

   -69.1979 -39.0074 -35.3065 -35.3065 -35.3065 -15.4872 -15.4872 -15.4872
    15.5181  15.5181  15.5181  15.7410  15.7410  15.7410  17.8048  17.8048
    21.2869  21.2869

     the Fermi energy is    17.7497 ev

!    total energy              =    -448.58580829 Ry
     estimated scf accuracy    <          1.7E-09 Ry
     smearing contrib. (-TS)   =      -0.00005084 Ry
     internal energy E=F+TS    =    -448.58575745 Ry

     The total energy is F=E-TS. E is the sum of the following terms:
     one-electron contribution =    -151.36177556 Ry
     hartree contribution      =      91.64092162 Ry
     xc contribution           =     -52.89068396 Ry
     ewald contribution        =    -259.82070277 Ry
     one-center paw contrib.   =     -76.15351679 Ry

     convergence has been achieved in  34 iterations

     negative rho (up, down):  8.032E-04 0.000E+00

     Forces acting on atoms (cartesian axes, Ry/au):

     atom    1 type  1   force =     0.00000000    0.00000000    0.00000000
     atom    2 type  2   force =     0.00000000    0.00000000    0.00000000

     Total force =     0.000000     Total SCF correction =     0.000000


     Computing stress (Cartesian axis) and pressure


     negative rho (up, down):  8.032E-04 0.000E+00
          total   stress  (Ry/bohr**3)                   (kbar)     P=       27.82
   0.00018910   0.00000000   0.00000000           27.82        0.00        0.00
   0.00000000   0.00018910   0.00000000            0.00       27.82        0.00
   0.00000000   0.00000000   0.00018910            0.00        0.00       27.82


     Writing all to output data dir ./out/TiFe6.save/ :
     XML data file, charge density, pseudopotentials, collected wavefunctions

     init_run     :      1.22s CPU      1.30s WALL (       1 calls)
     electrons    :     64.59s CPU     70.11s WALL (       1 calls)
     forces       :      0.32s CPU      0.37s WALL (       1 calls)
     stress       :      1.56s CPU      1.70s WALL (       1 calls)

     Called by init_run:
     wfcinit      :      0.59s CPU      0.62s WALL (       1 calls)
     potinit      :      0.14s CPU      0.15s WALL (       1 calls)
     hinit0       :      0.18s CPU      0.19s WALL (       1 calls)

     Called by electrons:
     c_bands      :     47.46s CPU     49.50s WALL (      34 calls)
     sum_band     :      9.11s CPU     11.05s WALL (      34 calls)
     v_of_rho     :      0.92s CPU      0.94s WALL (      35 calls)
     newd         :      3.64s CPU      4.98s WALL (      35 calls)
     PAW_pot      :      3.44s CPU      3.65s WALL (      35 calls)
     mix_rho      :      0.13s CPU      0.13s WALL (      34 calls)

     Called by c_bands:
     init_us_2    :      0.84s CPU      0.86s WALL (    3976 calls)
     cegterg      :     45.42s CPU     47.43s WALL (    1904 calls)

     Called by *egterg:
     cdiaghg      :      2.53s CPU      2.57s WALL (    7817 calls)
     h_psi        :     30.27s CPU     32.14s WALL (    7873 calls)
     s_psi        :      2.40s CPU      2.43s WALL (    7873 calls)
     g_psi        :      0.12s CPU      0.13s WALL (    5913 calls)

     Called by h_psi:
     h_psi:calbec :      3.22s CPU      3.41s WALL (    7873 calls)
     vloc_psi     :     24.36s CPU     25.97s WALL (    7873 calls)
     add_vuspsi   :      2.39s CPU      2.44s WALL (    7873 calls)

     General routines
     calbec       :      4.74s CPU      4.99s WALL (   10729 calls)
     fft          :      0.44s CPU      0.46s WALL (     478 calls)
     ffts         :      0.01s CPU      0.01s WALL (      69 calls)
     fftw         :     23.51s CPU     25.12s WALL (  219132 calls)
     interpolate  :      0.06s CPU      0.06s WALL (      35 calls)

     Parallel routines

     PWSCF        :   1m 7.90s CPU   1m13.72s WALL


   This run was terminated on:   1: 5:18  30Oct2025            

=------------------------------------------------------------------------------=
   JOB DONE.
=------------------------------------------------------------------------------=
