
     Program PWSCF v.7.4.1 starts on 30Oct2025 at  1: 1:56 

     This program is part of the open-source Quantum ESPRESSO suite
     for quantum simulation of materials; please cite
         "P. Giannozzi et al., J. Phys.:Condens. Matter 21 395502 (2009);
         "P. Giannozzi et al., J. Phys.:Condens. Matter 29 465901 (2017);
         "P. Giannozzi et al., J. Chem. Phys. 152 154105 (2020);
          URL http://www.quantum-espresso.org", 
     in publications or presentations arising from this work. More details at
     http://www.quantum-espresso.org/quote

     Parallel version (MPI), running on     4 processors

     MPI processes distributed on     1 nodes
     5190 MiB available memory on the printing compute node when the environment starts

     Reading input from TiFe3.in

     Current dimensions of program PWSCF are:
     Max number of different atomic species (ntypx) = 10
     Max number of k-points (npk) =  40000
     Max angular momentum in pseudopotentials (lmaxx) =  4
     file Fe.pbe-spn-kjpaw_psl.0.2.1.UPF: wavefunction(s)  3D renormalized

     IMPORTANT: XC functional enforced from input :
     Exchange-correlation= PBE
                           (   1   4   3   4   0   0   0)
     Any further DFT definition will be discarded
     Please, verify this is what you really want

     Message from routine setup:
     using ibrav=0 with symmetry is DISCOURAGED, use correct ibrav instead

     R & G space division:  proc/nbgrp/npool/nimage =       4
     Subspace diagonalization in iterative solution of the eigenvalue problem:
     a serial algorithm will be used


     Parallelization info
     --------------------
     sticks:   dense  smooth     PW     G-vecs:    dense   smooth      PW
     Min         369     148     46                10624     2706     482
     Max         371     149     47                10625     2709     485
     Sum        1481     593    185                42499    10827    1935

     Using Slab Decomposition



     bravais-lattice index     =            0
     lattice parameter (alat)  =       5.5533  a.u.
     unit-cell volume          =     171.2590 (a.u.)^3
     number of atoms/cell      =            2
     number of atomic types    =            2
     number of electrons       =        28.00
     number of Kohn-Sham states=           18
     kinetic-energy cutoff     =      60.0000  Ry
     charge density cutoff     =     600.0000  Ry
     scf convergence threshold =      1.0E-08
     mixing beta               =       0.7000
     number of iterations used =            8  plain     mixing
     Exchange-correlation= PBE
                           (   1   4   3   4   0   0   0)

     celldm(1)=   5.553300  celldm(2)=   0.000000  celldm(3)=   0.000000
     celldm(4)=   0.000000  celldm(5)=   0.000000  celldm(6)=   0.000000

     crystal axes: (cart. coord. in units of alat)
               a(1) = (   1.000000   0.000000   0.000000 )  
               a(2) = (   0.000000   1.000000   0.000000 )  
               a(3) = (   0.000000   0.000000   1.000000 )  

     reciprocal axes: (cart. coord. in units 2 pi/alat)
               b(1) = (  1.000000  0.000000  0.000000 )  
               b(2) = (  0.000000  1.000000  0.000000 )  
               b(3) = (  0.000000  0.000000  1.000000 )  


     PseudoPot. # 1 for Fe read from file:
     /home/rafi/QE/qe-7.4.1/pseudo/Fe.pbe-spn-kjpaw_psl.0.2.1.UPF
     MD5 check sum: e86618425769142926afa95317d90200
     Pseudo is Projector augmented-wave + core cor, Zval = 16.0
     Generated using "atomic" code by A. Dal Corso  v.5.0.99 svn rev. 10869
     Shape of augmentation charge: PSQ
     Using radial grid of 1191 points,  6 beta functions with: 
                l(1) =   0
                l(2) =   0
                l(3) =   1
                l(4) =   1
                l(5) =   2
                l(6) =   2
     Q(r) pseudized with 0 coefficients 


     PseudoPot. # 2 for Ti read from file:
     /home/rafi/QE/qe-7.4.1/pseudo/ti_pbe_v1.4.uspp.F.UPF
     MD5 check sum: 88a00a6731bd790ddea75d31a80cb452
     Pseudo is Ultrasoft + core correction, Zval = 12.0
     Generated by new atomic code, or converted to UPF format
     Using radial grid of  851 points,  6 beta functions with: 
                l(1) =   0
                l(2) =   0
                l(3) =   1
                l(4) =   1
                l(5) =   2
                l(6) =   2
     Q(r) pseudized with  6 coefficients,  rinner =    1.000   1.000   1.000
                                                       1.000   1.000

     atomic species   valence    mass     pseudopotential
     Fe               16.00    55.84500     Fe( 1.00)
     Ti               12.00    47.86700     Ti( 1.00)

     48 Sym. Ops., with inversion, found



   Cartesian axes

     site n.     atom                  positions (alat units)
         1        Fe     tau(   1) = (   0.5000000   0.5000000   0.5000000  )
         2        Ti     tau(   2) = (   0.0000000   0.0000000   0.0000000  )

     number of k points=    56  Marzari-Vanderbilt smearing, width (Ry)=  0.0050
                       cart. coord. in units 2pi/alat
        k(    1) = (   0.0000000   0.0000000   0.0000000), wk =   0.0020000
        k(    2) = (   0.0000000   0.0000000   0.1000000), wk =   0.0120000
        k(    3) = (   0.0000000   0.0000000   0.2000000), wk =   0.0120000
        k(    4) = (   0.0000000   0.0000000   0.3000000), wk =   0.0120000
        k(    5) = (   0.0000000   0.0000000   0.4000000), wk =   0.0120000
        k(    6) = (   0.0000000   0.0000000  -0.5000000), wk =   0.0060000
        k(    7) = (   0.0000000   0.1000000   0.1000000), wk =   0.0240000
        k(    8) = (   0.0000000   0.1000000   0.2000000), wk =   0.0480000
        k(    9) = (   0.0000000   0.1000000   0.3000000), wk =   0.0480000
        k(   10) = (   0.0000000   0.1000000   0.4000000), wk =   0.0480000
        k(   11) = (   0.0000000   0.1000000  -0.5000000), wk =   0.0240000
        k(   12) = (   0.0000000   0.2000000   0.2000000), wk =   0.0240000
        k(   13) = (   0.0000000   0.2000000   0.3000000), wk =   0.0480000
        k(   14) = (   0.0000000   0.2000000   0.4000000), wk =   0.0480000
        k(   15) = (   0.0000000   0.2000000  -0.5000000), wk =   0.0240000
        k(   16) = (   0.0000000   0.3000000   0.3000000), wk =   0.0240000
        k(   17) = (   0.0000000   0.3000000   0.4000000), wk =   0.0480000
        k(   18) = (   0.0000000   0.3000000  -0.5000000), wk =   0.0240000
        k(   19) = (   0.0000000   0.4000000   0.4000000), wk =   0.0240000
        k(   20) = (   0.0000000   0.4000000  -0.5000000), wk =   0.0240000
        k(   21) = (   0.0000000  -0.5000000  -0.5000000), wk =   0.0060000
        k(   22) = (   0.1000000   0.1000000   0.1000000), wk =   0.0160000
        k(   23) = (   0.1000000   0.1000000   0.2000000), wk =   0.0480000
        k(   24) = (   0.1000000   0.1000000   0.3000000), wk =   0.0480000
        k(   25) = (   0.1000000   0.1000000   0.4000000), wk =   0.0480000
        k(   26) = (   0.1000000   0.1000000  -0.5000000), wk =   0.0240000
        k(   27) = (   0.1000000   0.2000000   0.2000000), wk =   0.0480000
        k(   28) = (   0.1000000   0.2000000   0.3000000), wk =   0.0960000
        k(   29) = (   0.1000000   0.2000000   0.4000000), wk =   0.0960000
        k(   30) = (   0.1000000   0.2000000  -0.5000000), wk =   0.0480000
        k(   31) = (   0.1000000   0.3000000   0.3000000), wk =   0.0480000
        k(   32) = (   0.1000000   0.3000000   0.4000000), wk =   0.0960000
        k(   33) = (   0.1000000   0.3000000  -0.5000000), wk =   0.0480000
        k(   34) = (   0.1000000   0.4000000   0.4000000), wk =   0.0480000
        k(   35) = (   0.1000000   0.4000000  -0.5000000), wk =   0.0480000
        k(   36) = (   0.1000000  -0.5000000  -0.5000000), wk =   0.0120000
        k(   37) = (   0.2000000   0.2000000   0.2000000), wk =   0.0160000
        k(   38) = (   0.2000000   0.2000000   0.3000000), wk =   0.0480000
        k(   39) = (   0.2000000   0.2000000   0.4000000), wk =   0.0480000
        k(   40) = (   0.2000000   0.2000000  -0.5000000), wk =   0.0240000
        k(   41) = (   0.2000000   0.3000000   0.3000000), wk =   0.0480000
        k(   42) = (   0.2000000   0.3000000   0.4000000), wk =   0.0960000
        k(   43) = (   0.2000000   0.3000000  -0.5000000), wk =   0.0480000
        k(   44) = (   0.2000000   0.4000000   0.4000000), wk =   0.0480000
        k(   45) = (   0.2000000   0.4000000  -0.5000000), wk =   0.0480000
        k(   46) = (   0.2000000  -0.5000000  -0.5000000), wk =   0.0120000
        k(   47) = (   0.3000000   0.3000000   0.3000000), wk =   0.0160000
        k(   48) = (   0.3000000   0.3000000   0.4000000), wk =   0.0480000
        k(   49) = (   0.3000000   0.3000000  -0.5000000), wk =   0.0240000
        k(   50) = (   0.3000000   0.4000000   0.4000000), wk =   0.0480000
        k(   51) = (   0.3000000   0.4000000  -0.5000000), wk =   0.0480000
        k(   52) = (   0.3000000  -0.5000000  -0.5000000), wk =   0.0120000
        k(   53) = (   0.4000000   0.4000000   0.4000000), wk =   0.0160000
        k(   54) = (   0.4000000   0.4000000  -0.5000000), wk =   0.0240000
        k(   55) = (   0.4000000  -0.5000000  -0.5000000), wk =   0.0120000
        k(   56) = (  -0.5000000  -0.5000000  -0.5000000), wk =   0.0020000

     Dense  grid:    42499 G-vectors     FFT dimensions: (  45,  45,  45)

     Smooth grid:    10827 G-vectors     FFT dimensions: (  27,  27,  27)

     Estimated max dynamical RAM per process >      48.31 MB

     Estimated total dynamical RAM >     193.25 MB

     Check: negative core charge=   -0.000011

     Initial potential from superposition of free atoms

     starting charge      26.9995, renormalised to      28.0000

     negative rho (up, down):  1.318E-03 0.000E+00
     Starting wfcs are   23 randomized atomic wfcs
     Checking if some PAW data can be deallocated... 

     total cpu time spent up to now is        0.9 secs

     Self-consistent Calculation

     iteration #  1     ecut=    60.00 Ry     beta= 0.70
     Davidson diagonalization with overlap
     ethr =  1.00E-02,  avg # of iterations =  2.2

     total cpu time spent up to now is        1.9 secs

     total energy              =    -434.92509099 Ry
     estimated scf accuracy    <      17.42051005 Ry

     iteration #  2     ecut=    60.00 Ry     beta= 0.70
     Davidson diagonalization with overlap
     ethr =  1.00E-02,  avg # of iterations =  6.0

     negative rho (up, down):  9.956E-05 0.000E+00

     total cpu time spent up to now is        3.6 secs

     WARNING: integrated charge=    28.00014475, expected=    28.00000000

     total energy              =    -448.55395263 Ry
     estimated scf accuracy    <      65.75421583 Ry

     iteration #  3     ecut=    60.00 Ry     beta= 0.70
     Davidson diagonalization with overlap
     ethr =  1.00E-02,  avg # of iterations =  3.2

     negative rho (up, down):  2.101E-04 0.000E+00

     total cpu time spent up to now is        4.9 secs

     WARNING: integrated charge=    28.00001995, expected=    28.00000000

     total energy              =    -448.57616189 Ry
     estimated scf accuracy    <      16.74326746 Ry

     iteration #  4     ecut=    60.00 Ry     beta= 0.70
     Davidson diagonalization with overlap
     ethr =  1.00E-02,  avg # of iterations =  2.1

     negative rho (up, down):  2.172E-04 0.000E+00

     total cpu time spent up to now is        5.9 secs

     WARNING: integrated charge=    28.00002131, expected=    28.00000000

     total energy              =    -449.09868945 Ry
     estimated scf accuracy    <       4.81431278 Ry

     iteration #  5     ecut=    60.00 Ry     beta= 0.70
     Davidson diagonalization with overlap
     ethr =  1.00E-02,  avg # of iterations =  1.0

     negative rho (up, down):  2.200E-04 0.000E+00

     total cpu time spent up to now is        6.7 secs

     WARNING: integrated charge=    28.00002287, expected=    28.00000000

     total energy              =    -449.11732829 Ry
     estimated scf accuracy    <       4.38380220 Ry

     iteration #  6     ecut=    60.00 Ry     beta= 0.70
     Davidson diagonalization with overlap
     ethr =  1.00E-02,  avg # of iterations =  1.0

     negative rho (up, down):  5.064E-04 0.000E+00

     total cpu time spent up to now is        7.5 secs

     WARNING: integrated charge=    28.00000752, expected=    28.00000000

     total energy              =    -448.46727221 Ry
     estimated scf accuracy    <       4.41649291 Ry

     iteration #  7     ecut=    60.00 Ry     beta= 0.70
     Davidson diagonalization with overlap
     ethr =  1.00E-02,  avg # of iterations =  1.2

     negative rho (up, down):  5.698E-04 0.000E+00

     total cpu time spent up to now is        8.4 secs

     WARNING: integrated charge=    28.00000782, expected=    28.00000000

     total energy              =    -448.63338060 Ry
     estimated scf accuracy    <       0.62152772 Ry

     iteration #  8     ecut=    60.00 Ry     beta= 0.70
     Davidson diagonalization with overlap
     ethr =  2.22E-03,  avg # of iterations =  1.7

     negative rho (up, down):  1.367E-03 0.000E+00

     total cpu time spent up to now is        9.3 secs

     WARNING: integrated charge=    28.00001385, expected=    28.00000000

     total energy              =    -448.43609101 Ry
     estimated scf accuracy    <       0.86279369 Ry

     iteration #  9     ecut=    60.00 Ry     beta= 0.70
     Davidson diagonalization with overlap
     ethr =  2.22E-03,  avg # of iterations =  4.2

     negative rho (up, down):  1.128E-03 0.000E+00

     total cpu time spent up to now is       10.4 secs

     WARNING: integrated charge=    28.00001554, expected=    28.00000000

     total energy              =    -448.60310368 Ry
     estimated scf accuracy    <       0.69597840 Ry

     iteration # 10     ecut=    60.00 Ry     beta= 0.70
     Davidson diagonalization with overlap
     ethr =  2.22E-03,  avg # of iterations =  1.2

     negative rho (up, down):  1.030E-03 0.000E+00

     total cpu time spent up to now is       11.2 secs

     WARNING: integrated charge=    28.00000764, expected=    28.00000000

     total energy              =    -448.61768528 Ry
     estimated scf accuracy    <       0.37674122 Ry

     iteration # 11     ecut=    60.00 Ry     beta= 0.70
     Davidson diagonalization with overlap
     ethr =  1.35E-03,  avg # of iterations =  1.2

     negative rho (up, down):  4.786E-04 0.000E+00

     total cpu time spent up to now is       12.1 secs

     WARNING: integrated charge=    28.00000466, expected=    28.00000000

     total energy              =    -448.36924516 Ry
     estimated scf accuracy    <       0.80593701 Ry

     iteration # 12     ecut=    60.00 Ry     beta= 0.70
     Davidson diagonalization with overlap
     ethr =  1.35E-03,  avg # of iterations =  3.7

     negative rho (up, down):  7.101E-04 0.000E+00

     total cpu time spent up to now is       13.2 secs

     total energy              =    -448.50556636 Ry
     estimated scf accuracy    <       1.82489184 Ry

     iteration # 13     ecut=    60.00 Ry     beta= 0.70
     Davidson diagonalization with overlap
     ethr =  1.35E-03,  avg # of iterations =  2.3

     negative rho (up, down):  5.372E-04 0.000E+00

     total cpu time spent up to now is       14.1 secs

     total energy              =    -448.60273755 Ry
     estimated scf accuracy    <       0.08846148 Ry

     iteration # 14     ecut=    60.00 Ry     beta= 0.70
     Davidson diagonalization with overlap
     ethr =  3.16E-04,  avg # of iterations =  1.3

     negative rho (up, down):  2.429E-04 0.000E+00

     total cpu time spent up to now is       14.9 secs

     WARNING: integrated charge=    28.00000460, expected=    28.00000000

     total energy              =    -448.70281977 Ry
     estimated scf accuracy    <       0.30911462 Ry

     iteration # 15     ecut=    60.00 Ry     beta= 0.70
     Davidson diagonalization with overlap
     ethr =  3.16E-04,  avg # of iterations =  3.0

     negative rho (up, down):  1.164E-03 0.000E+00

     total cpu time spent up to now is       16.0 secs

     total energy              =    -448.41619802 Ry
     estimated scf accuracy    <       1.19696253 Ry

     iteration # 16     ecut=    60.00 Ry     beta= 0.70
     Davidson diagonalization with overlap
     ethr =  3.16E-04,  avg # of iterations =  5.2

     negative rho (up, down):  9.305E-04 0.000E+00

     total cpu time spent up to now is       17.4 secs

     total energy              =    -448.55821365 Ry
     estimated scf accuracy    <       0.47092401 Ry

     iteration # 17     ecut=    60.00 Ry     beta= 0.70
     Davidson diagonalization with overlap
     ethr =  3.16E-04,  avg # of iterations =  2.9

     negative rho (up, down):  4.616E-04 0.000E+00

     total cpu time spent up to now is       18.5 secs

     total energy              =    -448.57331191 Ry
     estimated scf accuracy    <       0.01976405 Ry

     iteration # 18     ecut=    60.00 Ry     beta= 0.70
     Davidson diagonalization with overlap
     ethr =  7.06E-05,  avg # of iterations =  5.1

     negative rho (up, down):  7.248E-04 0.000E+00

     total cpu time spent up to now is       20.0 secs

     total energy              =    -448.57949669 Ry
     estimated scf accuracy    <       0.65318524 Ry

     iteration # 19     ecut=    60.00 Ry     beta= 0.70
     Davidson diagonalization with overlap
     ethr =  7.06E-05,  avg # of iterations =  4.0

     negative rho (up, down):  9.194E-04 0.000E+00

     total cpu time spent up to now is       21.3 secs

     total energy              =    -448.56470093 Ry
     estimated scf accuracy    <       0.16471821 Ry

     iteration # 20     ecut=    60.00 Ry     beta= 0.70
     Davidson diagonalization with overlap
     ethr =  7.06E-05,  avg # of iterations =  4.2

     negative rho (up, down):  9.566E-04 0.000E+00

     total cpu time spent up to now is       22.6 secs

     total energy              =    -448.57856939 Ry
     estimated scf accuracy    <       0.00224532 Ry

     iteration # 21     ecut=    60.00 Ry     beta= 0.70
     Davidson diagonalization with overlap
     ethr =  8.02E-06,  avg # of iterations =  3.7

     negative rho (up, down):  9.456E-04 0.000E+00

     total cpu time spent up to now is       23.7 secs

     total energy              =    -448.57865129 Ry
     estimated scf accuracy    <       0.01076104 Ry

     iteration # 22     ecut=    60.00 Ry     beta= 0.70
     Davidson diagonalization with overlap
     ethr =  8.02E-06,  avg # of iterations =  1.0

     negative rho (up, down):  9.247E-04 0.000E+00

     total cpu time spent up to now is       24.6 secs

     total energy              =    -448.57816405 Ry
     estimated scf accuracy    <       0.00757392 Ry

     iteration # 23     ecut=    60.00 Ry     beta= 0.70
     Davidson diagonalization with overlap
     ethr =  8.02E-06,  avg # of iterations =  1.1

     negative rho (up, down):  9.151E-04 0.000E+00

     total cpu time spent up to now is       25.6 secs

     total energy              =    -448.57814029 Ry
     estimated scf accuracy    <       0.00243680 Ry

     iteration # 24     ecut=    60.00 Ry     beta= 0.70
     Davidson diagonalization with overlap
     ethr =  8.02E-06,  avg # of iterations =  1.0

     negative rho (up, down):  9.215E-04 0.000E+00

     total cpu time spent up to now is       26.5 secs

     total energy              =    -448.57826764 Ry
     estimated scf accuracy    <       0.00085011 Ry

     iteration # 25     ecut=    60.00 Ry     beta= 0.70
     Davidson diagonalization with overlap
     ethr =  3.04E-06,  avg # of iterations =  1.0

     negative rho (up, down):  9.288E-04 0.000E+00

     total cpu time spent up to now is       27.4 secs

     total energy              =    -448.57852542 Ry
     estimated scf accuracy    <       0.00224392 Ry

     iteration # 26     ecut=    60.00 Ry     beta= 0.70
     Davidson diagonalization with overlap
     ethr =  3.04E-06,  avg # of iterations =  1.7

     negative rho (up, down):  9.279E-04 0.000E+00

     total cpu time spent up to now is       28.4 secs

     total energy              =    -448.57857503 Ry
     estimated scf accuracy    <       0.00642754 Ry

     iteration # 27     ecut=    60.00 Ry     beta= 0.70
     Davidson diagonalization with overlap
     ethr =  3.04E-06,  avg # of iterations =  1.0

     negative rho (up, down):  9.004E-04 0.000E+00

     total cpu time spent up to now is       29.3 secs

     total energy              =    -448.57781529 Ry
     estimated scf accuracy    <       0.00625627 Ry

     iteration # 28     ecut=    60.00 Ry     beta= 0.70
     Davidson diagonalization with overlap
     ethr =  3.04E-06,  avg # of iterations =  3.2

     negative rho (up, down):  9.005E-04 0.000E+00

     total cpu time spent up to now is       30.3 secs

     total energy              =    -448.57812930 Ry
     estimated scf accuracy    <       0.00006469 Ry

     iteration # 29     ecut=    60.00 Ry     beta= 0.70
     Davidson diagonalization with overlap
     ethr =  2.31E-07,  avg # of iterations =  2.4

     negative rho (up, down):  9.008E-04 0.000E+00

     total cpu time spent up to now is       31.3 secs

     total energy              =    -448.57813640 Ry
     estimated scf accuracy    <       0.00018558 Ry

     iteration # 30     ecut=    60.00 Ry     beta= 0.70
     Davidson diagonalization with overlap
     ethr =  2.31E-07,  avg # of iterations =  1.0

     negative rho (up, down):  9.028E-04 0.000E+00

     total cpu time spent up to now is       32.2 secs

     total energy              =    -448.57814447 Ry
     estimated scf accuracy    <       0.00018973 Ry

     iteration # 31     ecut=    60.00 Ry     beta= 0.70
     Davidson diagonalization with overlap
     ethr =  2.31E-07,  avg # of iterations =  1.0

     negative rho (up, down):  9.024E-04 0.000E+00

     total cpu time spent up to now is       33.2 secs

     total energy              =    -448.57813473 Ry
     estimated scf accuracy    <       0.00027746 Ry

     iteration # 32     ecut=    60.00 Ry     beta= 0.70
     Davidson diagonalization with overlap
     ethr =  2.31E-07,  avg # of iterations =  1.0

     negative rho (up, down):  9.005E-04 0.000E+00

     total cpu time spent up to now is       34.1 secs

     total energy              =    -448.57812513 Ry
     estimated scf accuracy    <       0.00016161 Ry

     iteration # 33     ecut=    60.00 Ry     beta= 0.70
     Davidson diagonalization with overlap
     ethr =  2.31E-07,  avg # of iterations =  1.0

     negative rho (up, down):  8.964E-04 0.000E+00

     total cpu time spent up to now is       34.9 secs

     total energy              =    -448.57811714 Ry
     estimated scf accuracy    <       0.00006150 Ry

     iteration # 34     ecut=    60.00 Ry     beta= 0.70
     Davidson diagonalization with overlap
     ethr =  2.20E-07,  avg # of iterations =  2.1

     negative rho (up, down):  8.962E-04 0.000E+00

     total cpu time spent up to now is       35.9 secs

     total energy              =    -448.57812250 Ry
     estimated scf accuracy    <       0.00000067 Ry

     iteration # 35     ecut=    60.00 Ry     beta= 0.70
     Davidson diagonalization with overlap
     ethr =  2.38E-09,  avg # of iterations =  4.0

     negative rho (up, down):  8.963E-04 0.000E+00

     total cpu time spent up to now is       37.0 secs

     total energy              =    -448.57812282 Ry
     estimated scf accuracy    <       0.00000005 Ry

     iteration # 36     ecut=    60.00 Ry     beta= 0.70
     Davidson diagonalization with overlap
     ethr =  1.66E-10,  avg # of iterations =  3.9

     negative rho (up, down):  8.963E-04 0.000E+00

     total cpu time spent up to now is       38.2 secs

     End of self-consistent calculation

          k = 0.0000 0.0000 0.0000 (  1357 PWs)   bands (ev):

   -69.2107 -39.1177 -35.2637 -35.2637 -35.2637 -15.2130 -15.2130 -15.2130
    10.1562  13.8681  13.8681  16.6609  16.6609  16.6609  19.0122  19.0122
    20.9618  20.9618

          k = 0.0000 0.0000 0.1000 (  1349 PWs)   bands (ev):

   -69.2103 -39.1151 -35.2666 -35.2632 -35.2632 -15.2483 -15.2109 -15.2109
    10.3654  13.9685  13.9762  16.6455  16.6455  16.7063  18.8847  19.0597
    20.6626  20.6626

          k = 0.0000 0.0000 0.2000 (  1342 PWs)   bands (ev):

   -69.2093 -39.1085 -35.2745 -35.2619 -35.2619 -15.3399 -15.2054 -15.2054
    10.9677  14.2471  14.2609  16.6122  16.6122  16.8317  18.5193  19.1577
    19.9956  19.9956

          k = 0.0000 0.0000 0.3000 (  1330 PWs)   bands (ev):

   -69.2081 -39.1002 -35.2842 -35.2603 -35.2603 -15.4515 -15.1986 -15.1986
    11.8864  14.5190  14.7133  16.5887  16.5887  17.0020  17.9727  19.1443
    19.3043  19.3043

          k = 0.0000 0.0000 0.4000 (  1342 PWs)   bands (ev):

   -69.2073 -39.0935 -35.2923 -35.2592 -35.2592 -15.5407 -15.1930 -15.1930
    12.9737  14.5241  15.2409  16.5896  16.5896  17.1561  17.3657  18.8007
    18.8007  18.8413

          k = 0.0000 0.0000-0.5000 (  1342 PWs)   bands (ev):

   -69.2070 -39.0910 -35.2953 -35.2588 -35.2588 -15.5744 -15.1909 -15.1909
    13.8550  14.1005  15.5504  16.5968  16.5968  17.0252  17.2198  18.6045
    18.6147  18.6147

          k = 0.0000 0.1000 0.1000 (  1347 PWs)   bands (ev):

   -69.2100 -39.1124 -35.2677 -35.2649 -35.2628 -15.2495 -15.2421 -15.2087
    10.5693  14.0625  14.0856  16.5466  16.6188  16.8183  18.8705  19.0250
    20.3457  20.3642

          k = 0.0000 0.1000 0.2000 (  1336 PWs)   bands (ev):

   -69.2090 -39.1052 -35.2751 -35.2649 -35.2614 -15.3367 -15.2389 -15.2029
    11.1552  14.3136  14.3794  16.4535  16.5561  16.9428  18.5993  19.1114
    19.7256  19.7905

          k = 0.0000 0.1000 0.3000 (  1340 PWs)   bands (ev):

   -69.2079 -39.0964 -35.2852 -35.2643 -35.2599 -15.4469 -15.2309 -15.1957
    12.0423  14.5851  14.7908  16.4126  16.4897  17.0011  18.1506  18.9349
    19.3074  19.3296

          k = 0.0000 0.1000 0.4000 (  1345 PWs)   bands (ev):

   -69.2071 -39.0892 -35.2933 -35.2637 -35.2588 -15.5349 -15.2245 -15.1898
    13.0786  14.5759  15.2653  16.4278  16.4353  16.9500  17.6913  18.4921
    19.0558  19.1770

          k = 0.0000 0.1000-0.5000 (  1352 PWs)   bands (ev):

   -69.2068 -39.0865 -35.2965 -35.2634 -35.2586 -15.5683 -15.2220 -15.1876
    13.8906  14.1783  15.5402  16.3647  16.4695  16.8889  17.4918  18.2992
    18.9976  19.0388

          k = 0.0000 0.2000 0.2000 (  1328 PWs)   bands (ev):

   -69.2080 -39.0968 -35.2785 -35.2710 -35.2602 -15.3367 -15.3174 -15.1963
    11.6856  14.4591  14.7173  16.2485  16.4390  16.9762  18.6938  19.0710
    19.1656  19.5128

          k = 0.0000 0.2000 0.3000 (  1346 PWs)   bands (ev):

   -69.2071 -39.0863 -35.2877 -35.2741 -35.2589 -15.4349 -15.3148 -15.1881
    12.4601  14.5864  15.1561  16.1180  16.3566  16.8052  18.5192  18.6578
    19.2429  19.4531

          k = 0.0000 0.2000 0.4000 (  1351 PWs)   bands (ev):

   -69.2063 -39.0778 -35.2962 -35.2752 -35.2578 -15.5199 -15.3061 -15.1815
    13.3030  14.5130  15.5504  16.1023  16.3974  16.5266  18.2081  18.3905
    19.3878  19.5815

          k = 0.0000 0.2000-0.5000 (  1336 PWs)   bands (ev):

   -69.2058 -39.0746 -35.2993 -35.2755 -35.2573 -15.5522 -15.3027 -15.1789
    13.8638  14.2483  15.7191  16.1642  16.3457  16.4759  18.1440  18.1933
    19.4211  19.6808

          k = 0.0000 0.3000 0.3000 (  1342 PWs)   bands (ev):

   -69.2060 -39.0738 -35.2922 -35.2847 -35.2575 -15.4281 -15.4091 -15.1787
    12.9936  14.4755  15.6990  15.8857  16.4027  16.4437  18.5246  18.8403
    19.1335  19.7677

          k = 0.0000 0.3000 0.4000 (  1344 PWs)   bands (ev):

   -69.2051 -39.0637 -35.2997 -35.2895 -35.2563 -15.5013 -15.4057 -15.1711
    13.4511  14.2837  15.7869  16.0930  16.1649  16.7742  18.3556  18.8606
    19.3484  20.1205

          k = 0.0000 0.3000-0.5000 (  1344 PWs)   bands (ev):

   -69.2048 -39.0598 -35.3033 -35.2906 -35.2559 -15.5322 -15.4012 -15.1682
    13.6647  14.1476  15.8284  15.8875  16.3183  17.1814  18.0924  18.8635
    19.5315  20.3206

          k = 0.0000 0.4000 0.4000 (  1330 PWs)   bands (ev):

   -69.2041 -39.0522 -35.3031 -35.3001 -35.2552 -15.4894 -15.4822 -15.1627
    13.4663  14.0834  15.5991  15.7596  16.8980  17.3585  18.5919  19.0652
    19.2697  20.5498

          k = 0.0000 0.4000-0.5000 (  1344 PWs)   bands (ev):

   -69.2039 -39.0478 -35.3063 -35.3028 -35.2549 -15.5160 -15.4800 -15.1594
    13.4521  14.0090  15.5812  15.5927  17.1879  18.0979  18.1566  19.2106
    19.3353  20.7700

          k = 0.0000-0.5000-0.5000 (  1356 PWs)   bands (ev):

   -69.2037 -39.0432 -35.3076 -35.3076 -35.2545 -15.5099 -15.5099 -15.1561
    13.3672  13.9521  15.4915  15.4915  17.7665  18.1989  18.7326  18.7326
    19.4590  20.9322

          k = 0.1000 0.1000 0.1000 (  1346 PWs)   bands (ev):

   -69.2096 -39.1095 -35.2673 -35.2673 -35.2634 -15.2498 -15.2399 -15.2399
    10.7692  14.1739  14.1739  16.5175  16.5175  16.9002  18.9353  18.9353
    19.8746  20.6367

          k = 0.1000 0.1000 0.2000 (  1342 PWs)   bands (ev):

   -69.2087 -39.1019 -35.2755 -35.2660 -35.2635 -15.3334 -15.2381 -15.2343
    11.3413  14.4282  14.4499  16.3896  16.4415  16.9575  18.6791  19.0700
    19.4094  19.9679

          k = 0.1000 0.1000 0.3000 (  1337 PWs)   bands (ev):

   -69.2075 -39.0925 -35.2858 -35.2644 -35.2633 -15.4424 -15.2287 -15.2273
    12.2017  14.7096  14.8129  16.3389  16.3396  16.8878  18.3042  18.9309
    19.2931  19.3801

          k = 0.1000 0.1000 0.4000 (  1341 PWs)   bands (ev):

   -69.2067 -39.0849 -35.2942 -35.2632 -35.2632 -15.5295 -15.2216 -15.2210
    13.1949  14.6679  15.2459  16.2090  16.4193  16.7681  17.9276  18.5973
    18.8208  19.5680

          k = 0.1000 0.1000-0.5000 (  1338 PWs)   bands (ev):

   -69.2063 -39.0820 -35.2974 -35.2631 -35.2627 -15.5625 -15.2195 -15.2181
    13.9528  14.2753  15.4959  16.1010  16.5455  16.6888  17.7580  18.3724
    18.6526  19.6932

          k = 0.1000 0.2000 0.2000 (  1329 PWs)   bands (ev):

   -69.2077 -39.0932 -35.2780 -35.2719 -35.2636 -15.3325 -15.3152 -15.2290
    11.8668  14.5892  14.7694  16.2022  16.3109  16.8258  18.7781  19.0458
    19.2081  19.6823

          k = 0.1000 0.2000 0.3000 (  1341 PWs)   bands (ev):

   -69.2067 -39.0824 -35.2877 -35.2741 -35.2629 -15.4308 -15.3118 -15.2203
    12.6299  14.7363  15.1587  16.0632  16.2180  16.5717  18.6405  18.8394
    19.2287  19.5799

          k = 0.1000 0.2000 0.4000 (  1343 PWs)   bands (ev):

   -69.2059 -39.0737 -35.2966 -35.2748 -35.2622 -15.5153 -15.3031 -15.2131
    13.4504  14.6611  15.4563  15.9845  16.2825  16.4386  18.4020  18.4765
    19.0371  20.0464

          k = 0.1000 0.2000-0.5000 (  1338 PWs)   bands (ev):

   -69.2055 -39.0704 -35.2999 -35.2751 -35.2618 -15.5473 -15.2997 -15.2103
    13.9877  14.3874  15.5843  15.9430  16.2975  16.5364  18.2061  18.3569
    18.8951  20.4183

          k = 0.1000 0.3000 0.3000 (  1340 PWs)   bands (ev):

   -69.2056 -39.0700 -35.2916 -35.2849 -35.2618 -15.4237 -15.4068 -15.2107
    13.1731  14.6260  15.6916  15.8427  16.2050  16.2562  18.6294  18.9946
    19.0914  19.9907

          k = 0.1000 0.3000 0.4000 (  1348 PWs)   bands (ev):

   -69.2048 -39.0598 -35.2995 -35.2892 -35.2609 -15.4977 -15.4029 -15.2029
    13.6228  14.4336  15.7355  15.8985  16.1765  16.6090  18.3921  18.9411
    19.1420  20.5324

          k = 0.1000 0.3000-0.5000 (  1344 PWs)   bands (ev):

   -69.2045 -39.0559 -35.3031 -35.2901 -35.2605 -15.5286 -15.3986 -15.1999
    13.8211  14.3023  15.7548  15.7691  16.2770  17.0346  18.1141  18.9953
    19.0360  20.7116

          k = 0.1000 0.4000 0.4000 (  1343 PWs)   bands (ev):

   -69.2039 -39.0485 -35.3026 -35.3000 -35.2598 -15.4863 -15.4799 -15.1946
    13.6360  14.2359  15.5674  15.6964  16.8244  17.1404  18.4714  18.8243
    19.3740  20.8246

          k = 0.1000 0.4000-0.5000 (  1348 PWs)   bands (ev):

   -69.2037 -39.0442 -35.3059 -35.3022 -35.2595 -15.5134 -15.4776 -15.1914
    13.6167  14.1638  15.5475  15.5548  17.0882  17.8175  18.0903  18.7870
    19.4441  20.9307

          k = 0.1000-0.5000-0.5000 (  1340 PWs)   bands (ev):

   -69.2033 -39.0397 -35.3068 -35.3068 -35.2590 -15.5076 -15.5076 -15.1882
    13.5335  14.1064  15.4663  15.4663  17.7703  18.2000  18.2186  18.2186
    19.5633  21.5871

          k = 0.2000 0.2000 0.2000 (  1340 PWs)   bands (ev):

   -69.2069 -39.0839 -35.2768 -35.2768 -35.2700 -15.3263 -15.3093 -15.3093
    12.3739  14.9137  14.9137  16.0822  16.0822  16.4330  18.9688  18.9688
    19.4657  19.9358

          k = 0.2000 0.2000 0.3000 (  1346 PWs)   bands (ev):

   -69.2059 -39.0724 -35.2879 -35.2753 -35.2726 -15.4201 -15.3057 -15.3020
    13.0899  15.1148  15.1651  15.9306  15.9549  16.1251  18.8472  18.9719
    19.3214  19.9308

          k = 0.2000 0.2000 0.4000 (  1348 PWs)   bands (ev):

   -69.2050 -39.0630 -35.2977 -35.2739 -35.2739 -15.5032 -15.2961 -15.2945
    13.8093  14.9449  15.3161  15.7865  16.0515  16.2706  18.5621  18.7119
    18.9290  20.4862

          k = 0.2000 0.2000-0.5000 (  1336 PWs)   bands (ev):

   -69.2046 -39.0594 -35.3012 -35.2744 -35.2732 -15.5347 -15.2938 -15.2902
    14.2352  14.6462  15.4222  15.7065  16.1299  16.5062  18.2234  18.6399
    18.8089  20.5951

          k = 0.2000 0.3000 0.3000 (  1348 PWs)   bands (ev):

   -69.2048 -39.0599 -35.2902 -35.2858 -35.2732 -15.4120 -15.4008 -15.2938
    13.6705  15.0218  15.6577  15.7411  15.7753  15.8903  18.7404  18.9318
    19.4215  20.1893

          k = 0.2000 0.3000 0.4000 (  1339 PWs)   bands (ev):

   -69.2039 -39.0497 -35.2991 -35.2882 -35.2725 -15.4882 -15.3956 -15.2855
    14.0955  14.8018  15.5868  15.6424  15.9984  16.2896  18.4363  18.6984
    19.4012  20.5256

          k = 0.2000 0.3000-0.5000 (  1346 PWs)   bands (ev):

   -69.2036 -39.0458 -35.3031 -35.2887 -35.2723 -15.5191 -15.3917 -15.2823
    14.2423  14.6734  15.5453  15.6110  16.0993  16.6957  18.1174  18.6029
    19.3726  20.6992

          k = 0.2000 0.4000 0.4000 (  1351 PWs)   bands (ev):

   -69.2032 -39.0389 -35.3010 -35.2993 -35.2716 -15.4781 -15.4738 -15.2776
    14.1149  14.6238  15.4935  15.5690  16.5871  16.5954  18.3669  18.4192
    19.7082  20.7858

          k = 0.2000 0.4000-0.5000 (  1356 PWs)   bands (ev):

   -69.2029 -39.0348 -35.3046 -35.3007 -35.2713 -15.5064 -15.4713 -15.2746
    14.0808  14.5613  15.4723  15.4761  16.7390  17.1459  18.0249  18.3781
    19.7748  20.9855

          k = 0.2000-0.5000-0.5000 (  1340 PWs)   bands (ev):

   -69.2024 -39.0305 -35.3051 -35.3051 -35.2706 -15.5015 -15.5015 -15.2716
    14.0058  14.5090  15.4104  15.4104  17.3657  17.3657  17.7801  18.1854
    19.8830  21.2344

          k = 0.3000 0.3000 0.3000 (  1349 PWs)   bands (ev):

   -69.2038 -39.0473 -35.2884 -35.2884 -35.2856 -15.3996 -15.3933 -15.3933
    14.3186  15.2860  15.5739  15.5739  15.6472  15.6472  18.6779  18.6779
    19.9795  19.9795

          k = 0.3000 0.3000 0.4000 (  1345 PWs)   bands (ev):

   -69.2029 -39.0372 -35.2989 -35.2872 -35.2868 -15.4766 -15.3872 -15.3857
    14.6652  15.0435  15.4922  15.5741  15.7279  16.0966  18.3410  18.4770
    19.9129  20.5354

          k = 0.3000 0.3000-0.5000 (  1358 PWs)   bands (ev):

   -69.2027 -39.0333 -35.3032 -35.2876 -35.2864 -15.5073 -15.3849 -15.3812
    14.6767  14.9586  15.4635  15.5406  15.8983  16.4412  18.0402  18.4070
    19.8989  20.7783

          k = 0.3000 0.4000 0.4000 (  1357 PWs)   bands (ev):

   -69.2022 -39.0270 -35.2992 -35.2984 -35.2860 -15.4679 -15.4664 -15.3790
    14.7785  15.0353  15.4297  15.5545  16.0171  16.2178  18.1600  18.2638
    20.2464  20.8092

          k = 0.3000 0.4000-0.5000 (  1350 PWs)   bands (ev):

   -69.2018 -39.0231 -35.3031 -35.2987 -35.2855 -15.4977 -15.4636 -15.3761
    14.7294  15.0004  15.4368  15.4510  16.2256  16.5108  17.9329  18.2070
    20.3043  21.0394

          k = 0.3000-0.5000-0.5000 (  1352 PWs)   bands (ev):

   -69.2015 -39.0192 -35.3031 -35.3031 -35.2850 -15.4941 -15.4941 -15.3734
    14.6940  14.9979  15.3743  15.3743  16.6061  16.6061  17.7923  18.1073
    20.4080  21.2599

          k = 0.4000 0.4000 0.4000 (  1349 PWs)   bands (ev):

   -69.2013 -39.0173 -35.2976 -35.2974 -35.2974 -15.4603 -15.4603 -15.4594
    15.0772  15.4348  15.4348  15.6617  15.8493  15.8493  18.0486  18.0486
    20.8405  20.8405

          k = 0.4000 0.4000-0.5000 (  1356 PWs)   bands (ev):

   -69.2010 -39.0136 -35.3020 -35.2973 -35.2969 -15.4907 -15.4580 -15.4566
    15.1960  15.2379  15.5131  15.6328  15.8312  16.1098  17.8765  18.0194
    20.8536  21.1242

          k = 0.4000-0.5000-0.5000 (  1352 PWs)   bands (ev):

   -69.2007 -39.0100 -35.3014 -35.3014 -35.2964 -15.4881 -15.4881 -15.4549
    15.3789  15.4042  15.4163  15.4163  16.0367  16.0367  17.8021  17.9342
    21.0004  21.2806

          k =-0.5000-0.5000-0.5000 (  1376 PWs)   bands (ev):

   -69.2006 -39.0065 -35.3010 -35.3010 -35.3010 -15.4857 -15.4857 -15.4857
    15.5193  15.5193  15.5193  15.7497  15.7497  15.7497  17.8058  17.8058
    21.2886  21.2886

     the Fermi energy is    17.7518 ev

!    total energy              =    -448.57812283 Ry
     estimated scf accuracy    <          1.8E-09 Ry
     smearing contrib. (-TS)   =      -0.00004586 Ry
     internal energy E=F+TS    =    -448.57807698 Ry

     The total energy is F=E-TS. E is the sum of the following terms:
     one-electron contribution =    -151.34930495 Ry
     hartree contribution      =      91.63572826 Ry
     xc contribution           =     -52.89179053 Ry
     ewald contribution        =    -259.82070277 Ry
     one-center paw contrib.   =     -76.15200699 Ry

     convergence has been achieved in  36 iterations

     negative rho (up, down):  8.963E-04 0.000E+00

     Forces acting on atoms (cartesian axes, Ry/au):

     atom    1 type  1   force =     0.00000000    0.00000000    0.00000000
     atom    2 type  2   force =     0.00000000    0.00000000    0.00000000

     Total force =     0.000000     Total SCF correction =     0.000000


     Computing stress (Cartesian axis) and pressure


     negative rho (up, down):  8.963E-04 0.000E+00
          total   stress  (Ry/bohr**3)                   (kbar)     P=       23.71
   0.00016115   0.00000000   0.00000000           23.71        0.00        0.00
   0.00000000   0.00016115   0.00000000            0.00       23.71        0.00
   0.00000000   0.00000000   0.00016115            0.00        0.00       23.71


     Writing all to output data dir ./out/TiFe3.save/ :
     XML data file, charge density, pseudopotentials, collected wavefunctions

     init_run     :      0.67s CPU      0.74s WALL (       1 calls)
     electrons    :     35.51s CPU     37.28s WALL (       1 calls)
     forces       :      0.19s CPU      0.19s WALL (       1 calls)
     stress       :      0.84s CPU      0.85s WALL (       1 calls)

     Called by init_run:
     wfcinit      :      0.29s CPU      0.31s WALL (       1 calls)
     potinit      :      0.11s CPU      0.13s WALL (       1 calls)
     hinit0       :      0.15s CPU      0.15s WALL (       1 calls)

     Called by electrons:
     c_bands      :     23.59s CPU     25.03s WALL (      36 calls)
     sum_band     :      5.44s CPU      5.74s WALL (      36 calls)
     v_of_rho     :      0.46s CPU      0.46s WALL (      37 calls)
     newd         :      2.49s CPU      2.52s WALL (      37 calls)
     PAW_pot      :      3.54s CPU      3.58s WALL (      37 calls)
     mix_rho      :      0.06s CPU      0.06s WALL (      36 calls)

     Called by c_bands:
     init_us_2    :      0.39s CPU      0.41s WALL (    4200 calls)
     cegterg      :     22.58s CPU     23.99s WALL (    2016 calls)

     Called by *egterg:
     cdiaghg      :      1.99s CPU      2.04s WALL (    6875 calls)
     h_psi        :     15.07s CPU     16.31s WALL (    6931 calls)
     s_psi        :      1.13s CPU      1.18s WALL (    6931 calls)
     g_psi        :      0.06s CPU      0.06s WALL (    4859 calls)

     Called by h_psi:
     h_psi:calbec :      1.34s CPU      1.45s WALL (    6931 calls)
     vloc_psi     :     12.53s CPU     13.58s WALL (    6931 calls)
     add_vuspsi   :      1.11s CPU      1.18s WALL (    6931 calls)

     General routines
     calbec       :      2.13s CPU      2.29s WALL (    9899 calls)
     fft          :      0.22s CPU      0.23s WALL (     504 calls)
     ffts         :      0.01s CPU      0.01s WALL (      73 calls)
     fftw         :     13.10s CPU     14.22s WALL (  211986 calls)
     interpolate  :      0.03s CPU      0.03s WALL (      37 calls)

     Parallel routines

     PWSCF        :     37.40s CPU     39.28s WALL


   This run was terminated on:   1: 2:35  30Oct2025            

=------------------------------------------------------------------------------=
   JOB DONE.
=------------------------------------------------------------------------------=
