
     Program PWSCF v.7.4.1 starts on 30Oct2025 at  1:13:40 

     This program is part of the open-source Quantum ESPRESSO suite
     for quantum simulation of materials; please cite
         "P. Giannozzi et al., J. Phys.:Condens. Matter 21 395502 (2009);
         "P. Giannozzi et al., J. Phys.:Condens. Matter 29 465901 (2017);
         "P. Giannozzi et al., J. Chem. Phys. 152 154105 (2020);
          URL http://www.quantum-espresso.org", 
     in publications or presentations arising from this work. More details at
     http://www.quantum-espresso.org/quote

     Parallel version (MPI), running on     4 processors

     MPI processes distributed on     1 nodes
     4431 MiB available memory on the printing compute node when the environment starts

     Reading input from TiFe12.in

     Current dimensions of program PWSCF are:
     Max number of different atomic species (ntypx) = 10
     Max number of k-points (npk) =  40000
     Max angular momentum in pseudopotentials (lmaxx) =  4
     file Fe.pbe-spn-kjpaw_psl.0.2.1.UPF: wavefunction(s)  3D renormalized

     IMPORTANT: XC functional enforced from input :
     Exchange-correlation= PBE
                           (   1   4   3   4   0   0   0)
     Any further DFT definition will be discarded
     Please, verify this is what you really want

     Message from routine setup:
     using ibrav=0 with symmetry is DISCOURAGED, use correct ibrav instead

     R & G space division:  proc/nbgrp/npool/nimage =       4
     Subspace diagonalization in iterative solution of the eigenvalue problem:
     a serial algorithm will be used


     Parallelization info
     --------------------
     sticks:   dense  smooth     PW     G-vecs:    dense   smooth      PW
     Min         924     369    106                42016    10624    1666
     Max         925     371    108                42019    10625    1668
     Sum        3697    1481    429               168069    42499    6667

     Using Slab Decomposition



     bravais-lattice index     =            0
     lattice parameter (alat)  =       5.5533  a.u.
     unit-cell volume          =     171.2590 (a.u.)^3
     number of atoms/cell      =            2
     number of atomic types    =            2
     number of electrons       =        28.00
     number of Kohn-Sham states=           18
     kinetic-energy cutoff     =     150.0000  Ry
     charge density cutoff     =    1500.0000  Ry
     scf convergence threshold =      1.0E-08
     mixing beta               =       0.7000
     number of iterations used =            8  plain     mixing
     Exchange-correlation= PBE
                           (   1   4   3   4   0   0   0)

     celldm(1)=   5.553300  celldm(2)=   0.000000  celldm(3)=   0.000000
     celldm(4)=   0.000000  celldm(5)=   0.000000  celldm(6)=   0.000000

     crystal axes: (cart. coord. in units of alat)
               a(1) = (   1.000000   0.000000   0.000000 )  
               a(2) = (   0.000000   1.000000   0.000000 )  
               a(3) = (   0.000000   0.000000   1.000000 )  

     reciprocal axes: (cart. coord. in units 2 pi/alat)
               b(1) = (  1.000000  0.000000  0.000000 )  
               b(2) = (  0.000000  1.000000  0.000000 )  
               b(3) = (  0.000000  0.000000  1.000000 )  


     PseudoPot. # 1 for Fe read from file:
     /home/rafi/QE/qe-7.4.1/pseudo/Fe.pbe-spn-kjpaw_psl.0.2.1.UPF
     MD5 check sum: e86618425769142926afa95317d90200
     Pseudo is Projector augmented-wave + core cor, Zval = 16.0
     Generated using "atomic" code by A. Dal Corso  v.5.0.99 svn rev. 10869
     Shape of augmentation charge: PSQ
     Using radial grid of 1191 points,  6 beta functions with: 
                l(1) =   0
                l(2) =   0
                l(3) =   1
                l(4) =   1
                l(5) =   2
                l(6) =   2
     Q(r) pseudized with 0 coefficients 


     PseudoPot. # 2 for Ti read from file:
     /home/rafi/QE/qe-7.4.1/pseudo/ti_pbe_v1.4.uspp.F.UPF
     MD5 check sum: 88a00a6731bd790ddea75d31a80cb452
     Pseudo is Ultrasoft + core correction, Zval = 12.0
     Generated by new atomic code, or converted to UPF format
     Using radial grid of  851 points,  6 beta functions with: 
                l(1) =   0
                l(2) =   0
                l(3) =   1
                l(4) =   1
                l(5) =   2
                l(6) =   2
     Q(r) pseudized with  6 coefficients,  rinner =    1.000   1.000   1.000
                                                       1.000   1.000

     atomic species   valence    mass     pseudopotential
     Fe               16.00    55.84500     Fe( 1.00)
     Ti               12.00    47.86700     Ti( 1.00)

     48 Sym. Ops., with inversion, found



   Cartesian axes

     site n.     atom                  positions (alat units)
         1        Fe     tau(   1) = (   0.5000000   0.5000000   0.5000000  )
         2        Ti     tau(   2) = (   0.0000000   0.0000000   0.0000000  )

     number of k points=    56  Marzari-Vanderbilt smearing, width (Ry)=  0.0050
                       cart. coord. in units 2pi/alat
        k(    1) = (   0.0000000   0.0000000   0.0000000), wk =   0.0020000
        k(    2) = (   0.0000000   0.0000000   0.1000000), wk =   0.0120000
        k(    3) = (   0.0000000   0.0000000   0.2000000), wk =   0.0120000
        k(    4) = (   0.0000000   0.0000000   0.3000000), wk =   0.0120000
        k(    5) = (   0.0000000   0.0000000   0.4000000), wk =   0.0120000
        k(    6) = (   0.0000000   0.0000000  -0.5000000), wk =   0.0060000
        k(    7) = (   0.0000000   0.1000000   0.1000000), wk =   0.0240000
        k(    8) = (   0.0000000   0.1000000   0.2000000), wk =   0.0480000
        k(    9) = (   0.0000000   0.1000000   0.3000000), wk =   0.0480000
        k(   10) = (   0.0000000   0.1000000   0.4000000), wk =   0.0480000
        k(   11) = (   0.0000000   0.1000000  -0.5000000), wk =   0.0240000
        k(   12) = (   0.0000000   0.2000000   0.2000000), wk =   0.0240000
        k(   13) = (   0.0000000   0.2000000   0.3000000), wk =   0.0480000
        k(   14) = (   0.0000000   0.2000000   0.4000000), wk =   0.0480000
        k(   15) = (   0.0000000   0.2000000  -0.5000000), wk =   0.0240000
        k(   16) = (   0.0000000   0.3000000   0.3000000), wk =   0.0240000
        k(   17) = (   0.0000000   0.3000000   0.4000000), wk =   0.0480000
        k(   18) = (   0.0000000   0.3000000  -0.5000000), wk =   0.0240000
        k(   19) = (   0.0000000   0.4000000   0.4000000), wk =   0.0240000
        k(   20) = (   0.0000000   0.4000000  -0.5000000), wk =   0.0240000
        k(   21) = (   0.0000000  -0.5000000  -0.5000000), wk =   0.0060000
        k(   22) = (   0.1000000   0.1000000   0.1000000), wk =   0.0160000
        k(   23) = (   0.1000000   0.1000000   0.2000000), wk =   0.0480000
        k(   24) = (   0.1000000   0.1000000   0.3000000), wk =   0.0480000
        k(   25) = (   0.1000000   0.1000000   0.4000000), wk =   0.0480000
        k(   26) = (   0.1000000   0.1000000  -0.5000000), wk =   0.0240000
        k(   27) = (   0.1000000   0.2000000   0.2000000), wk =   0.0480000
        k(   28) = (   0.1000000   0.2000000   0.3000000), wk =   0.0960000
        k(   29) = (   0.1000000   0.2000000   0.4000000), wk =   0.0960000
        k(   30) = (   0.1000000   0.2000000  -0.5000000), wk =   0.0480000
        k(   31) = (   0.1000000   0.3000000   0.3000000), wk =   0.0480000
        k(   32) = (   0.1000000   0.3000000   0.4000000), wk =   0.0960000
        k(   33) = (   0.1000000   0.3000000  -0.5000000), wk =   0.0480000
        k(   34) = (   0.1000000   0.4000000   0.4000000), wk =   0.0480000
        k(   35) = (   0.1000000   0.4000000  -0.5000000), wk =   0.0480000
        k(   36) = (   0.1000000  -0.5000000  -0.5000000), wk =   0.0120000
        k(   37) = (   0.2000000   0.2000000   0.2000000), wk =   0.0160000
        k(   38) = (   0.2000000   0.2000000   0.3000000), wk =   0.0480000
        k(   39) = (   0.2000000   0.2000000   0.4000000), wk =   0.0480000
        k(   40) = (   0.2000000   0.2000000  -0.5000000), wk =   0.0240000
        k(   41) = (   0.2000000   0.3000000   0.3000000), wk =   0.0480000
        k(   42) = (   0.2000000   0.3000000   0.4000000), wk =   0.0960000
        k(   43) = (   0.2000000   0.3000000  -0.5000000), wk =   0.0480000
        k(   44) = (   0.2000000   0.4000000   0.4000000), wk =   0.0480000
        k(   45) = (   0.2000000   0.4000000  -0.5000000), wk =   0.0480000
        k(   46) = (   0.2000000  -0.5000000  -0.5000000), wk =   0.0120000
        k(   47) = (   0.3000000   0.3000000   0.3000000), wk =   0.0160000
        k(   48) = (   0.3000000   0.3000000   0.4000000), wk =   0.0480000
        k(   49) = (   0.3000000   0.3000000  -0.5000000), wk =   0.0240000
        k(   50) = (   0.3000000   0.4000000   0.4000000), wk =   0.0480000
        k(   51) = (   0.3000000   0.4000000  -0.5000000), wk =   0.0480000
        k(   52) = (   0.3000000  -0.5000000  -0.5000000), wk =   0.0120000
        k(   53) = (   0.4000000   0.4000000   0.4000000), wk =   0.0160000
        k(   54) = (   0.4000000   0.4000000  -0.5000000), wk =   0.0240000
        k(   55) = (   0.4000000  -0.5000000  -0.5000000), wk =   0.0120000
        k(   56) = (  -0.5000000  -0.5000000  -0.5000000), wk =   0.0020000

     Dense  grid:   168069 G-vectors     FFT dimensions: (  72,  72,  72)

     Smooth grid:    42499 G-vectors     FFT dimensions: (  45,  45,  45)

     Estimated max dynamical RAM per process >     181.52 MB

     Estimated total dynamical RAM >     726.08 MB

     Check: negative core charge=   -0.000002

     Initial potential from superposition of free atoms

     starting charge      26.9995, renormalised to      28.0000

     negative rho (up, down):  1.376E-03 0.000E+00
     Starting wfcs are   23 randomized atomic wfcs
     Checking if some PAW data can be deallocated... 

     total cpu time spent up to now is        2.7 secs

     Self-consistent Calculation

     iteration #  1     ecut=   150.00 Ry     beta= 0.70
     Davidson diagonalization with overlap
     ethr =  1.00E-02,  avg # of iterations =  2.2

     negative rho (up, down):  7.055E-05 0.000E+00

     total cpu time spent up to now is        7.4 secs

     total energy              =    -434.89026705 Ry
     estimated scf accuracy    <      17.46554378 Ry

     iteration #  2     ecut=   150.00 Ry     beta= 0.70
     Davidson diagonalization with overlap
     ethr =  1.00E-02,  avg # of iterations =  6.1

     negative rho (up, down):  2.319E-05 0.000E+00

     total cpu time spent up to now is       15.1 secs

     WARNING: integrated charge=    28.00014734, expected=    28.00000000

     total energy              =    -448.52636358 Ry
     estimated scf accuracy    <      66.02951029 Ry

     iteration #  3     ecut=   150.00 Ry     beta= 0.70
     Davidson diagonalization with overlap
     ethr =  1.00E-02,  avg # of iterations =  3.2

     negative rho (up, down):  2.152E-04 0.000E+00

     total cpu time spent up to now is       20.7 secs

     WARNING: integrated charge=    28.00002026, expected=    28.00000000

     total energy              =    -448.58235060 Ry
     estimated scf accuracy    <      16.77444900 Ry

     iteration #  4     ecut=   150.00 Ry     beta= 0.70
     Davidson diagonalization with overlap
     ethr =  1.00E-02,  avg # of iterations =  2.1

     negative rho (up, down):  2.597E-04 0.000E+00

     total cpu time spent up to now is       25.4 secs

     WARNING: integrated charge=    28.00002168, expected=    28.00000000

     total energy              =    -449.10222575 Ry
     estimated scf accuracy    <       4.80643397 Ry

     iteration #  5     ecut=   150.00 Ry     beta= 0.70
     Davidson diagonalization with overlap
     ethr =  1.00E-02,  avg # of iterations =  1.0

     negative rho (up, down):  3.099E-04 0.000E+00

     total cpu time spent up to now is       29.3 secs

     WARNING: integrated charge=    28.00002580, expected=    28.00000000

     total energy              =    -449.10836856 Ry
     estimated scf accuracy    <       4.34516609 Ry

     iteration #  6     ecut=   150.00 Ry     beta= 0.70
     Davidson diagonalization with overlap
     ethr =  1.00E-02,  avg # of iterations =  1.0

     negative rho (up, down):  1.115E-03 0.000E+00

     total cpu time spent up to now is       33.1 secs

     total energy              =    -447.90537764 Ry
     estimated scf accuracy    <       4.51345825 Ry

     iteration #  7     ecut=   150.00 Ry     beta= 0.70
     Davidson diagonalization with overlap
     ethr =  1.00E-02,  avg # of iterations =  3.3

     negative rho (up, down):  1.047E-03 0.000E+00

     total cpu time spent up to now is       37.7 secs

     total energy              =    -448.63816811 Ry
     estimated scf accuracy    <       3.32284943 Ry

     iteration #  8     ecut=   150.00 Ry     beta= 0.70
     Davidson diagonalization with overlap
     ethr =  1.00E-02,  avg # of iterations =  1.0

     negative rho (up, down):  8.413E-04 0.000E+00

     total cpu time spent up to now is       41.5 secs

     WARNING: integrated charge=    28.00000786, expected=    28.00000000

     total energy              =    -448.43411478 Ry
     estimated scf accuracy    <       1.70946383 Ry

     iteration #  9     ecut=   150.00 Ry     beta= 0.70
     Davidson diagonalization with overlap
     ethr =  6.11E-03,  avg # of iterations =  1.6

     negative rho (up, down):  8.197E-04 0.000E+00

     total cpu time spent up to now is       45.5 secs

     WARNING: integrated charge=    28.00000894, expected=    28.00000000

     total energy              =    -448.59120316 Ry
     estimated scf accuracy    <       0.12482101 Ry

     iteration # 10     ecut=   150.00 Ry     beta= 0.70
     Davidson diagonalization with overlap
     ethr =  4.46E-04,  avg # of iterations =  2.3

     negative rho (up, down):  7.908E-04 0.000E+00

     total cpu time spent up to now is       49.7 secs

     WARNING: integrated charge=    28.00001025, expected=    28.00000000

     total energy              =    -448.62485921 Ry
     estimated scf accuracy    <       0.09224695 Ry

     iteration # 11     ecut=   150.00 Ry     beta= 0.70
     Davidson diagonalization with overlap
     ethr =  3.29E-04,  avg # of iterations =  3.2

     negative rho (up, down):  8.000E-04 0.000E+00

     total cpu time spent up to now is       54.1 secs

     WARNING: integrated charge=    28.00000903, expected=    28.00000000

     total energy              =    -448.61826479 Ry
     estimated scf accuracy    <       0.88660335 Ry

     iteration # 12     ecut=   150.00 Ry     beta= 0.70
     Davidson diagonalization with overlap
     ethr =  3.29E-04,  avg # of iterations =  1.1

     negative rho (up, down):  8.121E-04 0.000E+00

     total cpu time spent up to now is       58.0 secs

     WARNING: integrated charge=    28.00000725, expected=    28.00000000

     total energy              =    -448.67254728 Ry
     estimated scf accuracy    <       0.52577482 Ry

     iteration # 13     ecut=   150.00 Ry     beta= 0.70
     Davidson diagonalization with overlap
     ethr =  3.29E-04,  avg # of iterations =  2.1

     negative rho (up, down):  1.118E-03 0.000E+00

     total cpu time spent up to now is       62.5 secs

     WARNING: integrated charge=    27.99999591, expected=    28.00000000

     total energy              =    -448.46271376 Ry
     estimated scf accuracy    <       0.75426757 Ry

     iteration # 14     ecut=   150.00 Ry     beta= 0.70
     Davidson diagonalization with overlap
     ethr =  3.29E-04,  avg # of iterations =  5.2

     negative rho (up, down):  7.220E-04 0.000E+00

     total cpu time spent up to now is       68.6 secs

     WARNING: integrated charge=    28.00000301, expected=    28.00000000

     total energy              =    -448.44650567 Ry
     estimated scf accuracy    <       0.69509880 Ry

     iteration # 15     ecut=   150.00 Ry     beta= 0.70
     Davidson diagonalization with overlap
     ethr =  3.29E-04,  avg # of iterations =  4.9

     negative rho (up, down):  8.647E-04 0.000E+00

     total cpu time spent up to now is       74.5 secs

     total energy              =    -448.54544507 Ry
     estimated scf accuracy    <       0.66557192 Ry

     iteration # 16     ecut=   150.00 Ry     beta= 0.70
     Davidson diagonalization with overlap
     ethr =  3.29E-04,  avg # of iterations =  3.8

     negative rho (up, down):  9.773E-04 0.000E+00

     total cpu time spent up to now is       79.6 secs

     total energy              =    -448.58615925 Ry
     estimated scf accuracy    <       0.02608304 Ry

     iteration # 17     ecut=   150.00 Ry     beta= 0.70
     Davidson diagonalization with overlap
     ethr =  9.32E-05,  avg # of iterations =  1.4

     negative rho (up, down):  1.027E-03 0.000E+00

     total cpu time spent up to now is       83.5 secs

     total energy              =    -448.58598647 Ry
     estimated scf accuracy    <       0.00870780 Ry

     iteration # 18     ecut=   150.00 Ry     beta= 0.70
     Davidson diagonalization with overlap
     ethr =  3.11E-05,  avg # of iterations =  2.3

     negative rho (up, down):  9.543E-04 0.000E+00

     total cpu time spent up to now is       87.8 secs

     total energy              =    -448.58660019 Ry
     estimated scf accuracy    <       0.00059070 Ry

     iteration # 19     ecut=   150.00 Ry     beta= 0.70
     Davidson diagonalization with overlap
     ethr =  2.11E-06,  avg # of iterations =  3.5

     negative rho (up, down):  9.851E-04 0.000E+00

     total cpu time spent up to now is       93.1 secs

     total energy              =    -448.58634113 Ry
     estimated scf accuracy    <       0.00348599 Ry

     iteration # 20     ecut=   150.00 Ry     beta= 0.70
     Davidson diagonalization with overlap
     ethr =  2.11E-06,  avg # of iterations =  4.2

     negative rho (up, down):  9.823E-04 0.000E+00

     total cpu time spent up to now is       97.9 secs

     total energy              =    -448.58668322 Ry
     estimated scf accuracy    <       0.00092158 Ry

     iteration # 21     ecut=   150.00 Ry     beta= 0.70
     Davidson diagonalization with overlap
     ethr =  2.11E-06,  avg # of iterations =  1.0

     negative rho (up, down):  9.866E-04 0.000E+00

     total cpu time spent up to now is      101.7 secs

     total energy              =    -448.58670185 Ry
     estimated scf accuracy    <       0.00009245 Ry

     iteration # 22     ecut=   150.00 Ry     beta= 0.70
     Davidson diagonalization with overlap
     ethr =  3.30E-07,  avg # of iterations =  2.1

     negative rho (up, down):  9.832E-04 0.000E+00

     total cpu time spent up to now is      105.9 secs

     total energy              =    -448.58670286 Ry
     estimated scf accuracy    <       0.00003445 Ry

     iteration # 23     ecut=   150.00 Ry     beta= 0.70
     Davidson diagonalization with overlap
     ethr =  1.23E-07,  avg # of iterations =  2.8

     negative rho (up, down):  9.831E-04 0.000E+00

     total cpu time spent up to now is      110.2 secs

     total energy              =    -448.58670894 Ry
     estimated scf accuracy    <       0.00001535 Ry

     iteration # 24     ecut=   150.00 Ry     beta= 0.70
     Davidson diagonalization with overlap
     ethr =  5.48E-08,  avg # of iterations =  1.4

     negative rho (up, down):  9.836E-04 0.000E+00

     total cpu time spent up to now is      114.2 secs

     total energy              =    -448.58670870 Ry
     estimated scf accuracy    <       0.00000720 Ry

     iteration # 25     ecut=   150.00 Ry     beta= 0.70
     Davidson diagonalization with overlap
     ethr =  2.57E-08,  avg # of iterations =  1.6

     negative rho (up, down):  9.835E-04 0.000E+00

     total cpu time spent up to now is      118.2 secs

     total energy              =    -448.58670925 Ry
     estimated scf accuracy    <       0.00000005 Ry

     iteration # 26     ecut=   150.00 Ry     beta= 0.70
     Davidson diagonalization with overlap
     ethr =  1.67E-10,  avg # of iterations =  6.6

     negative rho (up, down):  9.834E-04 0.000E+00

     total cpu time spent up to now is      125.9 secs

     total energy              =    -448.58670948 Ry
     estimated scf accuracy    <       0.00000003 Ry

     iteration # 27     ecut=   150.00 Ry     beta= 0.70
     Davidson diagonalization with overlap
     ethr =  9.99E-11,  avg # of iterations =  2.1

     negative rho (up, down):  9.835E-04 0.000E+00

     total cpu time spent up to now is      130.6 secs

     total energy              =    -448.58670948 Ry
     estimated scf accuracy    <       0.00000005 Ry

     iteration # 28     ecut=   150.00 Ry     beta= 0.70
     Davidson diagonalization with overlap
     ethr =  9.99E-11,  avg # of iterations =  2.0

     negative rho (up, down):  9.834E-04 0.000E+00

     total cpu time spent up to now is      135.0 secs

     End of self-consistent calculation

          k = 0.0000 0.0000 0.0000 (  5377 PWs)   bands (ev):

   -69.2096 -39.1186 -35.2716 -35.2716 -35.2716 -15.2146 -15.2146 -15.2146
    10.1528  13.8671  13.8671  16.6593  16.6593  16.6593  19.0109  19.0109
    20.9598  20.9598

          k = 0.0000 0.0000 0.1000 (  5321 PWs)   bands (ev):

   -69.2092 -39.1161 -35.2746 -35.2711 -35.2711 -15.2499 -15.2125 -15.2125
    10.3616  13.9675  13.9748  16.6439  16.6439  16.7048  18.8834  19.0583
    20.6599  20.6599

          k = 0.0000 0.0000 0.2000 (  5306 PWs)   bands (ev):

   -69.2083 -39.1094 -35.2824 -35.2699 -35.2699 -15.3415 -15.2070 -15.2070
    10.9632  14.2449  14.2599  16.6106  16.6106  16.8302  18.5181  19.1559
    19.9919  19.9919

          k = 0.0000 0.0000 0.3000 (  5290 PWs)   bands (ev):

   -69.2073 -39.1011 -35.2921 -35.2684 -35.2684 -15.4531 -15.2002 -15.2002
    11.8809  14.5152  14.7122  16.5870  16.5870  17.0005  17.9716  19.1418
    19.3000  19.3000

          k = 0.0000 0.0000 0.4000 (  5310 PWs)   bands (ev):

   -69.2064 -39.0945 -35.2998 -35.2672 -35.2672 -15.5422 -15.1946 -15.1946
    12.9673  14.5180  15.2396  16.5880  16.5880  17.1545  17.3648  18.7961
    18.7961  18.8382

          k = 0.0000 0.0000-0.5000 (  5294 PWs)   bands (ev):

   -69.2061 -39.0919 -35.3028 -35.2667 -35.2667 -15.5759 -15.1925 -15.1925
    13.8513  14.0899  15.5490  16.5951  16.5951  17.0245  17.2182  18.6017
    18.6101  18.6101

          k = 0.0000 0.1000 0.1000 (  5319 PWs)   bands (ev):

   -69.2089 -39.1133 -35.2757 -35.2728 -35.2707 -15.2511 -15.2437 -15.2103
    10.5654  14.0613  14.0841  16.5451  16.6173  16.8167  18.8692  19.0236
    20.3426  20.3610

          k = 0.0000 0.1000 0.2000 (  5299 PWs)   bands (ev):

   -69.2080 -39.1061 -35.2831 -35.2729 -35.2695 -15.3383 -15.2404 -15.2045
    11.1505  14.3120  14.3774  16.4519  16.5545  16.9411  18.5980  19.1096
    19.7216  19.7867

          k = 0.0000 0.1000 0.3000 (  5299 PWs)   bands (ev):

   -69.2069 -39.0973 -35.2929 -35.2722 -35.2680 -15.4484 -15.2325 -15.1973
    12.0367  14.5817  14.7889  16.4109  16.4879  16.9994  18.1494  18.9314
    19.3033  19.3263

          k = 0.0000 0.1000 0.4000 (  5321 PWs)   bands (ev):

   -69.2061 -39.0901 -35.3009 -35.2716 -35.2668 -15.5364 -15.2260 -15.1914
    13.0724  14.5701  15.2636  16.4257  16.4337  16.9482  17.6902  18.4887
    19.0517  19.1726

          k = 0.0000 0.1000-0.5000 (  5314 PWs)   bands (ev):

   -69.2057 -39.0874 -35.3039 -35.2713 -35.2663 -15.5698 -15.2236 -15.1892
    13.8868  14.1687  15.5384  16.3625  16.4678  16.8870  17.4907  18.2964
    18.9936  19.0339

          k = 0.0000 0.2000 0.2000 (  5309 PWs)   bands (ev):

   -69.2071 -39.0977 -35.2866 -35.2790 -35.2683 -15.3382 -15.3190 -15.1979
    11.6804  14.4573  14.7145  16.2470  16.4372  16.9745  18.6924  19.0691
    19.1612  19.5091

          k = 0.0000 0.2000 0.3000 (  5316 PWs)   bands (ev):

   -69.2061 -39.0872 -35.2954 -35.2819 -35.2669 -15.4365 -15.3164 -15.1897
    12.4545  14.5838  15.1526  16.1164  16.3542  16.8034  18.5179  18.6538
    19.2399  19.4495

          k = 0.0000 0.2000 0.4000 (  5322 PWs)   bands (ev):

   -69.2052 -39.0787 -35.3037 -35.2831 -35.2657 -15.5214 -15.3077 -15.1830
    13.2976  14.5089  15.5469  16.1008  16.3934  16.5247  18.2063  18.3879
    19.3828  19.5780

          k = 0.0000 0.2000-0.5000 (  5322 PWs)   bands (ev):

   -69.2049 -39.0755 -35.3069 -35.2834 -35.2653 -15.5537 -15.3043 -15.1805
    13.8604  14.2418  15.7160  16.1626  16.3438  16.4703  18.1417  18.1920
    19.4145  19.6774

          k = 0.0000 0.3000 0.3000 (  5307 PWs)   bands (ev):

   -69.2050 -39.0747 -35.3000 -35.2923 -35.2655 -15.4297 -15.4107 -15.1803
    12.9885  14.4729  15.6946  15.8842  16.3988  16.4419  18.5201  18.8389
    19.1302  19.7645

          k = 0.0000 0.3000 0.4000 (  5306 PWs)   bands (ev):

   -69.2042 -39.0646 -35.3073 -35.2972 -35.2645 -15.5029 -15.4072 -15.1727
    13.4473  14.2809  15.7853  16.0913  16.1601  16.7673  18.3516  18.8591
    19.3424  20.1176

          k = 0.0000 0.3000-0.5000 (  5328 PWs)   bands (ev):

   -69.2038 -39.0607 -35.3107 -35.2984 -35.2640 -15.5338 -15.4028 -15.1697
    13.6619  14.1443  15.8268  15.8858  16.3135  17.1714  18.0904  18.8622
    19.5225  20.3179

          k = 0.0000 0.4000 0.4000 (  5304 PWs)   bands (ev):

   -69.2033 -39.0531 -35.3109 -35.3079 -35.2634 -15.4910 -15.4838 -15.1642
    13.4636  14.0814  15.5976  15.7580  16.8926  17.3504  18.5851  19.0570
    19.2678  20.5474

          k = 0.0000 0.4000-0.5000 (  5310 PWs)   bands (ev):

   -69.2030 -39.0487 -35.3138 -35.3104 -35.2630 -15.5176 -15.4816 -15.1610
    13.4496  14.0074  15.5798  15.5912  17.1828  18.0957  18.1425  19.1984
    19.3338  20.7679

          k = 0.0000-0.5000-0.5000 (  5280 PWs)   bands (ev):

   -69.2027 -39.0441 -35.3150 -35.3150 -35.2626 -15.5114 -15.5114 -15.1577
    13.3648  13.9510  15.4901  15.4901  17.7652  18.1968  18.7151  18.7151
    19.4576  20.9303

          k = 0.1000 0.1000 0.1000 (  5290 PWs)   bands (ev):

   -69.2086 -39.1104 -35.2752 -35.2752 -35.2714 -15.2514 -15.2415 -15.2415
    10.7650  14.1724  14.1724  16.5159  16.5159  16.8985  18.9339  18.9339
    19.8708  20.6340

          k = 0.1000 0.1000 0.2000 (  5298 PWs)   bands (ev):

   -69.2077 -39.1028 -35.2833 -35.2740 -35.2715 -15.3350 -15.2397 -15.2359
    11.3364  14.4266  14.4476  16.3880  16.4399  16.9558  18.6778  19.0681
    19.4054  19.9641

          k = 0.1000 0.1000 0.3000 (  5312 PWs)   bands (ev):

   -69.2066 -39.0934 -35.2936 -35.2724 -35.2713 -15.4439 -15.2303 -15.2289
    12.1961  14.7058  14.8113  16.3373  16.3378  16.8860  18.3030  18.9276
    19.2888  19.3767

          k = 0.1000 0.1000 0.4000 (  5295 PWs)   bands (ev):

   -69.2057 -39.0858 -35.3018 -35.2712 -35.2712 -15.5310 -15.2232 -15.2226
    13.1887  14.6620  15.2441  16.2075  16.4170  16.7662  17.9265  18.5943
    18.8163  19.5637

          k = 0.1000 0.1000-0.5000 (  5308 PWs)   bands (ev):

   -69.2054 -39.0829 -35.3049 -35.2711 -35.2707 -15.5640 -15.2210 -15.2197
    13.9489  14.2662  15.4938  16.0996  16.5423  16.6868  17.7569  18.3700
    18.6482  19.6882

          k = 0.1000 0.2000 0.2000 (  5316 PWs)   bands (ev):

   -69.2068 -39.0941 -35.2860 -35.2798 -35.2717 -15.3340 -15.3168 -15.2306
    11.8615  14.5871  14.7666  16.2006  16.3091  16.8240  18.7766  19.0438
    19.2040  19.6785

          k = 0.1000 0.2000 0.3000 (  5318 PWs)   bands (ev):

   -69.2058 -39.0834 -35.2954 -35.2820 -35.2709 -15.4323 -15.3134 -15.2218
    12.6241  14.7335  15.1552  16.0616  16.2158  16.5698  18.6390  18.8357
    19.2253  19.5762

          k = 0.1000 0.2000 0.4000 (  5305 PWs)   bands (ev):

   -69.2049 -39.0746 -35.3041 -35.2827 -35.2702 -15.5168 -15.3047 -15.2147
    13.4449  14.6569  15.4529  15.9829  16.2795  16.4357  18.3998  18.4741
    19.0328  20.0421

          k = 0.1000 0.2000-0.5000 (  5308 PWs)   bands (ev):

   -69.2046 -39.0713 -35.3075 -35.2830 -35.2698 -15.5489 -15.3013 -15.2119
    13.9839  14.3810  15.5811  15.9414  16.2955  16.5306  18.2038  18.3557
    18.8905  20.4131

          k = 0.1000 0.3000 0.3000 (  5322 PWs)   bands (ev):

   -69.2047 -39.0709 -35.2994 -35.2926 -35.2698 -15.4252 -15.4084 -15.2123
    13.1678  14.6232  15.6871  15.8412  16.2022  16.2536  18.6253  18.9930
    19.0878  19.9871

          k = 0.1000 0.3000 0.4000 (  5315 PWs)   bands (ev):

   -69.2038 -39.0607 -35.3071 -35.2969 -35.2689 -15.4993 -15.4045 -15.2045
    13.6187  14.4307  15.7338  15.8959  16.1725  16.6021  18.3883  18.9384
    19.1380  20.5285

          k = 0.1000 0.3000-0.5000 (  5324 PWs)   bands (ev):

   -69.2035 -39.0569 -35.3107 -35.2978 -35.2685 -15.5301 -15.4002 -15.2015
    13.8179  14.2991  15.7533  15.7668  16.2725  17.0246  18.1120  18.9940
    19.0300  20.7098

          k = 0.1000 0.4000 0.4000 (  5317 PWs)   bands (ev):

   -69.2030 -39.0494 -35.3102 -35.3076 -35.2678 -15.4878 -15.4815 -15.1962
    13.6328  14.2339  15.5658  15.6947  16.8186  17.1318  18.4665  18.8172
    19.3724  20.8227

          k = 0.1000 0.4000-0.5000 (  5318 PWs)   bands (ev):

   -69.2027 -39.0451 -35.3134 -35.3098 -35.2674 -15.5149 -15.4792 -15.1930
    13.6137  14.1622  15.5459  15.5531  17.0823  17.8046  18.0880  18.7789
    19.4426  20.9287

          k = 0.1000-0.5000-0.5000 (  5328 PWs)   bands (ev):

   -69.2023 -39.0406 -35.3144 -35.3144 -35.2670 -15.5091 -15.5091 -15.1898
    13.5306  14.1052  15.4647  15.4647  17.7689  18.1979  18.2043  18.2043
    19.5619  21.5822

          k = 0.2000 0.2000 0.2000 (  5296 PWs)   bands (ev):

   -69.2060 -39.0848 -35.2847 -35.2847 -35.2778 -15.3279 -15.3108 -15.3108
    12.3680  14.9108  14.9108  16.0805  16.0805  16.4311  18.9667  18.9667
    19.4617  19.9324

          k = 0.2000 0.2000 0.3000 (  5319 PWs)   bands (ev):

   -69.2049 -39.0733 -35.2957 -35.2830 -35.2804 -15.4216 -15.3073 -15.3035
    13.0837  15.1118  15.1612  15.9289  15.9529  16.1231  18.8448  18.9685
    19.3182  19.9269

          k = 0.2000 0.2000 0.4000 (  5314 PWs)   bands (ev):

   -69.2040 -39.0639 -35.3052 -35.2818 -35.2816 -15.5047 -15.2976 -15.2961
    13.8036  14.9407  15.3128  15.7848  16.0491  16.2660  18.5587  18.7085
    18.9269  20.4837

          k = 0.2000 0.2000-0.5000 (  5308 PWs)   bands (ev):

   -69.2037 -39.0604 -35.3089 -35.2823 -35.2811 -15.5362 -15.2953 -15.2917
    14.2308  14.6411  15.4185  15.7051  16.1277  16.4987  18.2212  18.6357
    18.8077  20.5932

          k = 0.2000 0.3000 0.3000 (  5312 PWs)   bands (ev):

   -69.2039 -39.0608 -35.2979 -35.2934 -35.2810 -15.4136 -15.4023 -15.2953
    13.6642  15.0186  15.6528  15.7396  15.7727  15.8879  18.7366  18.9277
    19.4197  20.1872

          k = 0.2000 0.3000 0.4000 (  5314 PWs)   bands (ev):

   -69.2030 -39.0506 -35.3067 -35.2960 -35.2805 -15.4898 -15.3972 -15.2871
    14.0904  14.7990  15.5833  15.6408  15.9949  16.2827  18.4327  18.6940
    19.3997  20.5237

          k = 0.2000 0.3000-0.5000 (  5306 PWs)   bands (ev):

   -69.2027 -39.0467 -35.3107 -35.2964 -35.2802 -15.5206 -15.3932 -15.2839
    14.2381  14.6707  15.5417  15.6094  16.0955  16.6857  18.1152  18.5986
    19.3712  20.6973

          k = 0.2000 0.4000 0.4000 (  5310 PWs)   bands (ev):

   -69.2022 -39.0398 -35.3086 -35.3069 -35.2794 -15.4796 -15.4754 -15.2792
    14.1106  14.6219  15.4916  15.5668  16.5803  16.5871  18.3635  18.4142
    19.7067  20.7839

          k = 0.2000 0.4000-0.5000 (  5308 PWs)   bands (ev):

   -69.2018 -39.0357 -35.3122 -35.3082 -35.2790 -15.5079 -15.4729 -15.2761
    14.0767  14.5597  15.4701  15.4743  16.7317  17.1347  18.0224  18.3740
    19.7733  20.9835

          k = 0.2000-0.5000-0.5000 (  5328 PWs)   bands (ev):

   -69.2015 -39.0315 -35.3127 -35.3127 -35.2785 -15.5031 -15.5031 -15.2731
    14.0016  14.5076  15.4085  15.4085  17.3542  17.3542  17.7787  18.1832
    19.8814  21.2322

          k = 0.3000 0.3000 0.3000 (  5319 PWs)   bands (ev):

   -69.2028 -39.0483 -35.2961 -35.2961 -35.2932 -15.4011 -15.3948 -15.3948
    14.3111  15.2844  15.5692  15.5692  15.6451  15.6451  18.6739  18.6739
    19.9778  19.9778

          k = 0.3000 0.3000 0.4000 (  5333 PWs)   bands (ev):

   -69.2020 -39.0381 -35.3065 -35.2949 -35.2946 -15.4781 -15.3887 -15.3873
    14.6591  15.0417  15.4870  15.5721  15.7249  16.0893  18.3374  18.4732
    19.9113  20.5336

          k = 0.3000 0.3000-0.5000 (  5288 PWs)   bands (ev):

   -69.2016 -39.0342 -35.3107 -35.2952 -35.2940 -15.5088 -15.3864 -15.3828
    14.6717  14.9569  15.4577  15.5390  15.8953  16.4305  18.0381  18.4034
    19.8973  20.7764

          k = 0.3000 0.4000 0.4000 (  5312 PWs)   bands (ev):

   -69.2011 -39.0279 -35.3067 -35.3059 -35.2936 -15.4695 -15.4679 -15.3805
    14.7729  15.0335  15.4273  15.5515  16.0092  16.2107  18.1566  18.2606
    20.2447  20.8072

          k = 0.3000 0.4000-0.5000 (  5318 PWs)   bands (ev):

   -69.2008 -39.0240 -35.3107 -35.3063 -35.2932 -15.4993 -15.4651 -15.3776
    14.7238  14.9989  15.4333  15.4489  16.2185  16.5005  17.9308  18.2041
    20.3026  21.0374

          k = 0.3000-0.5000-0.5000 (  5324 PWs)   bands (ev):

   -69.2005 -39.0201 -35.3107 -35.3107 -35.2926 -15.4956 -15.4956 -15.3750
    14.6880  14.9964  15.3719  15.3719  16.5963  16.5963  17.7908  18.1050
    20.4062  21.2577

          k = 0.4000 0.4000 0.4000 (  5325 PWs)   bands (ev):

   -69.2003 -39.0182 -35.3053 -35.3051 -35.3051 -15.4618 -15.4618 -15.4610
    15.0740  15.4319  15.4319  15.6544  15.8424  15.8424  18.0459  18.0459
    20.8386  20.8386

          k = 0.4000 0.4000-0.5000 (  5352 PWs)   bands (ev):

   -69.2000 -39.0145 -35.3095 -35.3049 -35.3045 -15.4922 -15.4595 -15.4581
    15.1910  15.2359  15.5114  15.6245  15.8260  16.1000  17.8748  18.0170
    20.8517  21.1221

          k = 0.4000-0.5000-0.5000 (  5340 PWs)   bands (ev):

   -69.1997 -39.0109 -35.3091 -35.3091 -35.3041 -15.4896 -15.4896 -15.4564
    15.3773  15.3958  15.4133  15.4133  16.0280  16.0280  17.8007  17.9323
    20.9983  21.2784

          k =-0.5000-0.5000-0.5000 (  5400 PWs)   bands (ev):

   -69.1993 -39.0074 -35.3084 -35.3084 -35.3084 -15.4872 -15.4872 -15.4872
    15.5177  15.5177  15.5177  15.7399  15.7399  15.7399  17.8044  17.8044
    21.2864  26.2258

     the Fermi energy is    17.7493 ev

!    total energy              =    -448.58670948 Ry
     estimated scf accuracy    <          7.9E-09 Ry
     smearing contrib. (-TS)   =      -0.00005146 Ry
     internal energy E=F+TS    =    -448.58665802 Ry

     The total energy is F=E-TS. E is the sum of the following terms:
     one-electron contribution =    -151.36124504 Ry
     hartree contribution      =      91.64053385 Ry
     xc contribution           =     -52.89159033 Ry
     ewald contribution        =    -259.82070277 Ry
     one-center paw contrib.   =     -76.15365373 Ry

     convergence has been achieved in  28 iterations

     negative rho (up, down):  9.834E-04 0.000E+00

     Forces acting on atoms (cartesian axes, Ry/au):

     atom    1 type  1   force =     0.00000000    0.00000000    0.00000000
     atom    2 type  2   force =     0.00000000    0.00000000    0.00000000

     Total force =     0.000000     Total SCF correction =     0.000000


     Computing stress (Cartesian axis) and pressure


     negative rho (up, down):  9.834E-04 0.000E+00
          total   stress  (Ry/bohr**3)                   (kbar)     P=       29.65
   0.00020154   0.00000000   0.00000000           29.65        0.00        0.00
   0.00000000   0.00020154   0.00000000            0.00       29.65        0.00
   0.00000000   0.00000000   0.00020154            0.00        0.00       29.65


     Writing all to output data dir ./out/TiFe12.save/ :
     XML data file, charge density, pseudopotentials, collected wavefunctions

     init_run     :      2.27s CPU      2.46s WALL (       1 calls)
     electrons    :    124.54s CPU    132.31s WALL (       1 calls)
     forces       :      0.77s CPU      0.87s WALL (       1 calls)
     stress       :      3.57s CPU      3.82s WALL (       1 calls)

     Called by init_run:
     wfcinit      :      1.53s CPU      1.59s WALL (       1 calls)
     potinit      :      0.20s CPU      0.22s WALL (       1 calls)
     hinit0       :      0.26s CPU      0.27s WALL (       1 calls)

     Called by electrons:
     c_bands      :     93.22s CPU     95.39s WALL (      28 calls)
     sum_band     :     19.44s CPU     22.57s WALL (      28 calls)
     v_of_rho     :      2.15s CPU      2.22s WALL (      29 calls)
     newd         :      6.69s CPU      9.12s WALL (      29 calls)
     PAW_pot      :      2.82s CPU      2.86s WALL (      29 calls)
     mix_rho      :      0.36s CPU      0.38s WALL (      28 calls)

     Called by c_bands:
     init_us_2    :      2.14s CPU      2.16s WALL (    3304 calls)
     cegterg      :     89.01s CPU     91.16s WALL (    1568 calls)

     Called by *egterg:
     cdiaghg      :      1.83s CPU      1.84s WALL (    5770 calls)
     h_psi        :     65.76s CPU     67.84s WALL (    5826 calls)
     s_psi        :      4.00s CPU      4.01s WALL (    5826 calls)
     g_psi        :      0.20s CPU      0.20s WALL (    4202 calls)

     Called by h_psi:
     h_psi:calbec :      6.57s CPU      6.73s WALL (    5826 calls)
     vloc_psi     :     54.48s CPU     56.38s WALL (    5826 calls)
     add_vuspsi   :      4.10s CPU      4.11s WALL (    5826 calls)

     General routines
     calbec       :      9.61s CPU      9.81s WALL (    8346 calls)
     fft          :      1.12s CPU      1.23s WALL (     400 calls)
     ffts         :      0.03s CPU      0.03s WALL (      57 calls)
     fftw         :     43.96s CPU     45.63s WALL (  172662 calls)
     interpolate  :      0.13s CPU      0.14s WALL (      29 calls)

     Parallel routines

     PWSCF        :   2m11.40s CPU   2m19.77s WALL


   This run was terminated on:   1:16: 0  30Oct2025            

=------------------------------------------------------------------------------=
   JOB DONE.
=------------------------------------------------------------------------------=
