
     Program PWSCF v.7.4.1 starts on 30Oct2025 at  1:11:26 

     This program is part of the open-source Quantum ESPRESSO suite
     for quantum simulation of materials; please cite
         "P. Giannozzi et al., J. Phys.:Condens. Matter 21 395502 (2009);
         "P. Giannozzi et al., J. Phys.:Condens. Matter 29 465901 (2017);
         "P. Giannozzi et al., J. Chem. Phys. 152 154105 (2020);
          URL http://www.quantum-espresso.org", 
     in publications or presentations arising from this work. More details at
     http://www.quantum-espresso.org/quote

     Parallel version (MPI), running on     4 processors

     MPI processes distributed on     1 nodes
     4522 MiB available memory on the printing compute node when the environment starts

     Reading input from TiFe11.in

     Current dimensions of program PWSCF are:
     Max number of different atomic species (ntypx) = 10
     Max number of k-points (npk) =  40000
     Max angular momentum in pseudopotentials (lmaxx) =  4
     file Fe.pbe-spn-kjpaw_psl.0.2.1.UPF: wavefunction(s)  3D renormalized

     IMPORTANT: XC functional enforced from input :
     Exchange-correlation= PBE
                           (   1   4   3   4   0   0   0)
     Any further DFT definition will be discarded
     Please, verify this is what you really want

     Message from routine setup:
     using ibrav=0 with symmetry is DISCOURAGED, use correct ibrav instead

     R & G space division:  proc/nbgrp/npool/nimage =       4
     Subspace diagonalization in iterative solution of the eigenvalue problem:
     a serial algorithm will be used


     Parallelization info
     --------------------
     sticks:   dense  smooth     PW     G-vecs:    dense   smooth      PW
     Min         857     342    101                37830     9600    1510
     Max         859     343    102                37831     9601    1511
     Sum        3433    1369    405               151323    38401    6043

     Using Slab Decomposition



     bravais-lattice index     =            0
     lattice parameter (alat)  =       5.5533  a.u.
     unit-cell volume          =     171.2590 (a.u.)^3
     number of atoms/cell      =            2
     number of atomic types    =            2
     number of electrons       =        28.00
     number of Kohn-Sham states=           18
     kinetic-energy cutoff     =     140.0000  Ry
     charge density cutoff     =    1400.0000  Ry
     scf convergence threshold =      1.0E-08
     mixing beta               =       0.7000
     number of iterations used =            8  plain     mixing
     Exchange-correlation= PBE
                           (   1   4   3   4   0   0   0)

     celldm(1)=   5.553300  celldm(2)=   0.000000  celldm(3)=   0.000000
     celldm(4)=   0.000000  celldm(5)=   0.000000  celldm(6)=   0.000000

     crystal axes: (cart. coord. in units of alat)
               a(1) = (   1.000000   0.000000   0.000000 )  
               a(2) = (   0.000000   1.000000   0.000000 )  
               a(3) = (   0.000000   0.000000   1.000000 )  

     reciprocal axes: (cart. coord. in units 2 pi/alat)
               b(1) = (  1.000000  0.000000  0.000000 )  
               b(2) = (  0.000000  1.000000  0.000000 )  
               b(3) = (  0.000000  0.000000  1.000000 )  


     PseudoPot. # 1 for Fe read from file:
     /home/rafi/QE/qe-7.4.1/pseudo/Fe.pbe-spn-kjpaw_psl.0.2.1.UPF
     MD5 check sum: e86618425769142926afa95317d90200
     Pseudo is Projector augmented-wave + core cor, Zval = 16.0
     Generated using "atomic" code by A. Dal Corso  v.5.0.99 svn rev. 10869
     Shape of augmentation charge: PSQ
     Using radial grid of 1191 points,  6 beta functions with: 
                l(1) =   0
                l(2) =   0
                l(3) =   1
                l(4) =   1
                l(5) =   2
                l(6) =   2
     Q(r) pseudized with 0 coefficients 


     PseudoPot. # 2 for Ti read from file:
     /home/rafi/QE/qe-7.4.1/pseudo/ti_pbe_v1.4.uspp.F.UPF
     MD5 check sum: 88a00a6731bd790ddea75d31a80cb452
     Pseudo is Ultrasoft + core correction, Zval = 12.0
     Generated by new atomic code, or converted to UPF format
     Using radial grid of  851 points,  6 beta functions with: 
                l(1) =   0
                l(2) =   0
                l(3) =   1
                l(4) =   1
                l(5) =   2
                l(6) =   2
     Q(r) pseudized with  6 coefficients,  rinner =    1.000   1.000   1.000
                                                       1.000   1.000

     atomic species   valence    mass     pseudopotential
     Fe               16.00    55.84500     Fe( 1.00)
     Ti               12.00    47.86700     Ti( 1.00)

     48 Sym. Ops., with inversion, found



   Cartesian axes

     site n.     atom                  positions (alat units)
         1        Fe     tau(   1) = (   0.5000000   0.5000000   0.5000000  )
         2        Ti     tau(   2) = (   0.0000000   0.0000000   0.0000000  )

     number of k points=    56  Marzari-Vanderbilt smearing, width (Ry)=  0.0050
                       cart. coord. in units 2pi/alat
        k(    1) = (   0.0000000   0.0000000   0.0000000), wk =   0.0020000
        k(    2) = (   0.0000000   0.0000000   0.1000000), wk =   0.0120000
        k(    3) = (   0.0000000   0.0000000   0.2000000), wk =   0.0120000
        k(    4) = (   0.0000000   0.0000000   0.3000000), wk =   0.0120000
        k(    5) = (   0.0000000   0.0000000   0.4000000), wk =   0.0120000
        k(    6) = (   0.0000000   0.0000000  -0.5000000), wk =   0.0060000
        k(    7) = (   0.0000000   0.1000000   0.1000000), wk =   0.0240000
        k(    8) = (   0.0000000   0.1000000   0.2000000), wk =   0.0480000
        k(    9) = (   0.0000000   0.1000000   0.3000000), wk =   0.0480000
        k(   10) = (   0.0000000   0.1000000   0.4000000), wk =   0.0480000
        k(   11) = (   0.0000000   0.1000000  -0.5000000), wk =   0.0240000
        k(   12) = (   0.0000000   0.2000000   0.2000000), wk =   0.0240000
        k(   13) = (   0.0000000   0.2000000   0.3000000), wk =   0.0480000
        k(   14) = (   0.0000000   0.2000000   0.4000000), wk =   0.0480000
        k(   15) = (   0.0000000   0.2000000  -0.5000000), wk =   0.0240000
        k(   16) = (   0.0000000   0.3000000   0.3000000), wk =   0.0240000
        k(   17) = (   0.0000000   0.3000000   0.4000000), wk =   0.0480000
        k(   18) = (   0.0000000   0.3000000  -0.5000000), wk =   0.0240000
        k(   19) = (   0.0000000   0.4000000   0.4000000), wk =   0.0240000
        k(   20) = (   0.0000000   0.4000000  -0.5000000), wk =   0.0240000
        k(   21) = (   0.0000000  -0.5000000  -0.5000000), wk =   0.0060000
        k(   22) = (   0.1000000   0.1000000   0.1000000), wk =   0.0160000
        k(   23) = (   0.1000000   0.1000000   0.2000000), wk =   0.0480000
        k(   24) = (   0.1000000   0.1000000   0.3000000), wk =   0.0480000
        k(   25) = (   0.1000000   0.1000000   0.4000000), wk =   0.0480000
        k(   26) = (   0.1000000   0.1000000  -0.5000000), wk =   0.0240000
        k(   27) = (   0.1000000   0.2000000   0.2000000), wk =   0.0480000
        k(   28) = (   0.1000000   0.2000000   0.3000000), wk =   0.0960000
        k(   29) = (   0.1000000   0.2000000   0.4000000), wk =   0.0960000
        k(   30) = (   0.1000000   0.2000000  -0.5000000), wk =   0.0480000
        k(   31) = (   0.1000000   0.3000000   0.3000000), wk =   0.0480000
        k(   32) = (   0.1000000   0.3000000   0.4000000), wk =   0.0960000
        k(   33) = (   0.1000000   0.3000000  -0.5000000), wk =   0.0480000
        k(   34) = (   0.1000000   0.4000000   0.4000000), wk =   0.0480000
        k(   35) = (   0.1000000   0.4000000  -0.5000000), wk =   0.0480000
        k(   36) = (   0.1000000  -0.5000000  -0.5000000), wk =   0.0120000
        k(   37) = (   0.2000000   0.2000000   0.2000000), wk =   0.0160000
        k(   38) = (   0.2000000   0.2000000   0.3000000), wk =   0.0480000
        k(   39) = (   0.2000000   0.2000000   0.4000000), wk =   0.0480000
        k(   40) = (   0.2000000   0.2000000  -0.5000000), wk =   0.0240000
        k(   41) = (   0.2000000   0.3000000   0.3000000), wk =   0.0480000
        k(   42) = (   0.2000000   0.3000000   0.4000000), wk =   0.0960000
        k(   43) = (   0.2000000   0.3000000  -0.5000000), wk =   0.0480000
        k(   44) = (   0.2000000   0.4000000   0.4000000), wk =   0.0480000
        k(   45) = (   0.2000000   0.4000000  -0.5000000), wk =   0.0480000
        k(   46) = (   0.2000000  -0.5000000  -0.5000000), wk =   0.0120000
        k(   47) = (   0.3000000   0.3000000   0.3000000), wk =   0.0160000
        k(   48) = (   0.3000000   0.3000000   0.4000000), wk =   0.0480000
        k(   49) = (   0.3000000   0.3000000  -0.5000000), wk =   0.0240000
        k(   50) = (   0.3000000   0.4000000   0.4000000), wk =   0.0480000
        k(   51) = (   0.3000000   0.4000000  -0.5000000), wk =   0.0480000
        k(   52) = (   0.3000000  -0.5000000  -0.5000000), wk =   0.0120000
        k(   53) = (   0.4000000   0.4000000   0.4000000), wk =   0.0160000
        k(   54) = (   0.4000000   0.4000000  -0.5000000), wk =   0.0240000
        k(   55) = (   0.4000000  -0.5000000  -0.5000000), wk =   0.0120000
        k(   56) = (  -0.5000000  -0.5000000  -0.5000000), wk =   0.0020000

     Dense  grid:   151323 G-vectors     FFT dimensions: (  72,  72,  72)

     Smooth grid:    38401 G-vectors     FFT dimensions: (  45,  45,  45)

     Estimated max dynamical RAM per process >     164.50 MB

     Estimated total dynamical RAM >     658.01 MB

     Check: negative core charge=   -0.000003

     Initial potential from superposition of free atoms

     starting charge      26.9995, renormalised to      28.0000

     negative rho (up, down):  1.378E-03 0.000E+00
     Starting wfcs are   23 randomized atomic wfcs
     Checking if some PAW data can be deallocated... 

     total cpu time spent up to now is        2.3 secs

     Self-consistent Calculation

     iteration #  1     ecut=   140.00 Ry     beta= 0.70
     Davidson diagonalization with overlap
     ethr =  1.00E-02,  avg # of iterations =  2.2

     negative rho (up, down):  7.037E-05 0.000E+00

     total cpu time spent up to now is        6.5 secs

     total energy              =    -434.89480704 Ry
     estimated scf accuracy    <      17.46094940 Ry

     iteration #  2     ecut=   140.00 Ry     beta= 0.70
     Davidson diagonalization with overlap
     ethr =  1.00E-02,  avg # of iterations =  6.1

     negative rho (up, down):  2.323E-05 0.000E+00

     total cpu time spent up to now is       13.4 secs

     WARNING: integrated charge=    28.00015050, expected=    28.00000000

     total energy              =    -448.52571373 Ry
     estimated scf accuracy    <      66.02475472 Ry

     iteration #  3     ecut=   140.00 Ry     beta= 0.70
     Davidson diagonalization with overlap
     ethr =  1.00E-02,  avg # of iterations =  3.2

     negative rho (up, down):  2.152E-04 0.000E+00

     total cpu time spent up to now is       18.9 secs

     WARNING: integrated charge=    28.00002083, expected=    28.00000000

     total energy              =    -448.58639406 Ry
     estimated scf accuracy    <      16.76933985 Ry

     iteration #  4     ecut=   140.00 Ry     beta= 0.70
     Davidson diagonalization with overlap
     ethr =  1.00E-02,  avg # of iterations =  2.1

     negative rho (up, down):  2.590E-04 0.000E+00

     total cpu time spent up to now is       23.7 secs

     WARNING: integrated charge=    28.00002226, expected=    28.00000000

     total energy              =    -449.10439574 Ry
     estimated scf accuracy    <       4.82332933 Ry

     iteration #  5     ecut=   140.00 Ry     beta= 0.70
     Davidson diagonalization with overlap
     ethr =  1.00E-02,  avg # of iterations =  1.0

     negative rho (up, down):  3.066E-04 0.000E+00

     total cpu time spent up to now is       27.3 secs

     WARNING: integrated charge=    28.00002650, expected=    28.00000000

     total energy              =    -449.11319424 Ry
     estimated scf accuracy    <       4.36375324 Ry

     iteration #  6     ecut=   140.00 Ry     beta= 0.70
     Davidson diagonalization with overlap
     ethr =  1.00E-02,  avg # of iterations =  1.0

     negative rho (up, down):  1.119E-03 0.000E+00

     total cpu time spent up to now is       31.0 secs

     total energy              =    -447.88153324 Ry
     estimated scf accuracy    <       4.54264542 Ry

     iteration #  7     ecut=   140.00 Ry     beta= 0.70
     Davidson diagonalization with overlap
     ethr =  1.00E-02,  avg # of iterations =  3.3

     negative rho (up, down):  1.038E-03 0.000E+00

     total cpu time spent up to now is       35.4 secs

     total energy              =    -448.62714011 Ry
     estimated scf accuracy    <       3.73337948 Ry

     iteration #  8     ecut=   140.00 Ry     beta= 0.70
     Davidson diagonalization with overlap
     ethr =  1.00E-02,  avg # of iterations =  1.0

     negative rho (up, down):  8.358E-04 0.000E+00

     total cpu time spent up to now is       39.0 secs

     WARNING: integrated charge=    28.00000811, expected=    28.00000000

     total energy              =    -448.43962083 Ry
     estimated scf accuracy    <       1.67852316 Ry

     iteration #  9     ecut=   140.00 Ry     beta= 0.70
     Davidson diagonalization with overlap
     ethr =  5.99E-03,  avg # of iterations =  1.5

     negative rho (up, down):  8.172E-04 0.000E+00

     total cpu time spent up to now is       42.8 secs

     WARNING: integrated charge=    28.00000915, expected=    28.00000000

     total energy              =    -448.59255372 Ry
     estimated scf accuracy    <       0.11282819 Ry

     iteration # 10     ecut=   140.00 Ry     beta= 0.70
     Davidson diagonalization with overlap
     ethr =  4.03E-04,  avg # of iterations =  2.4

     negative rho (up, down):  7.962E-04 0.000E+00

     total cpu time spent up to now is       46.7 secs

     WARNING: integrated charge=    28.00000948, expected=    28.00000000

     total energy              =    -448.61816796 Ry
     estimated scf accuracy    <       0.11299196 Ry

     iteration # 11     ecut=   140.00 Ry     beta= 0.70
     Davidson diagonalization with overlap
     ethr =  4.03E-04,  avg # of iterations =  2.2

     negative rho (up, down):  8.295E-04 0.000E+00

     total cpu time spent up to now is       50.7 secs

     WARNING: integrated charge=    28.00000761, expected=    28.00000000

     total energy              =    -448.60515104 Ry
     estimated scf accuracy    <       0.56284604 Ry

     iteration # 12     ecut=   140.00 Ry     beta= 0.70
     Davidson diagonalization with overlap
     ethr =  4.03E-04,  avg # of iterations =  1.3

     negative rho (up, down):  6.941E-04 0.000E+00

     total cpu time spent up to now is       54.4 secs

     WARNING: integrated charge=    28.00000609, expected=    28.00000000

     total energy              =    -448.68688157 Ry
     estimated scf accuracy    <       0.30558808 Ry

     iteration # 13     ecut=   140.00 Ry     beta= 0.70
     Davidson diagonalization with overlap
     ethr =  4.03E-04,  avg # of iterations =  2.4

     negative rho (up, down):  7.951E-04 0.000E+00

     total cpu time spent up to now is       59.1 secs

     total energy              =    -448.63206560 Ry
     estimated scf accuracy    <       0.79833364 Ry

     iteration # 14     ecut=   140.00 Ry     beta= 0.70
     Davidson diagonalization with overlap
     ethr =  4.03E-04,  avg # of iterations =  1.5

     negative rho (up, down):  7.180E-04 0.000E+00

     total cpu time spent up to now is       62.8 secs

     total energy              =    -448.68578735 Ry
     estimated scf accuracy    <       0.30980262 Ry

     iteration # 15     ecut=   140.00 Ry     beta= 0.70
     Davidson diagonalization with overlap
     ethr =  4.03E-04,  avg # of iterations =  1.0

     negative rho (up, down):  1.009E-03 0.000E+00

     total cpu time spent up to now is       66.4 secs

     total energy              =    -448.49995648 Ry
     estimated scf accuracy    <       0.56379893 Ry

     iteration # 16     ecut=   140.00 Ry     beta= 0.70
     Davidson diagonalization with overlap
     ethr =  4.03E-04,  avg # of iterations =  4.3

     negative rho (up, down):  9.638E-04 0.000E+00

     total cpu time spent up to now is       71.8 secs

     total energy              =    -448.57762613 Ry
     estimated scf accuracy    <       0.06779188 Ry

     iteration # 17     ecut=   140.00 Ry     beta= 0.70
     Davidson diagonalization with overlap
     ethr =  2.42E-04,  avg # of iterations =  2.0

     negative rho (up, down):  1.126E-03 0.000E+00

     total cpu time spent up to now is       75.8 secs

     WARNING: integrated charge=    27.99999700, expected=    28.00000000

     total energy              =    -448.58607181 Ry
     estimated scf accuracy    <       0.00140935 Ry

     iteration # 18     ecut=   140.00 Ry     beta= 0.70
     Davidson diagonalization with overlap
     ethr =  5.03E-06,  avg # of iterations =  6.0

     negative rho (up, down):  1.119E-03 0.000E+00

     total cpu time spent up to now is       82.3 secs

     total energy              =    -448.59194251 Ry
     estimated scf accuracy    <       0.10646188 Ry

     iteration # 19     ecut=   140.00 Ry     beta= 0.70
     Davidson diagonalization with overlap
     ethr =  5.03E-06,  avg # of iterations =  1.9

     negative rho (up, down):  1.116E-03 0.000E+00

     total cpu time spent up to now is       86.2 secs

     total energy              =    -448.59170489 Ry
     estimated scf accuracy    <       0.08067275 Ry

     iteration # 20     ecut=   140.00 Ry     beta= 0.70
     Davidson diagonalization with overlap
     ethr =  5.03E-06,  avg # of iterations =  1.0

     negative rho (up, down):  1.161E-03 0.000E+00

     total cpu time spent up to now is       89.8 secs

     total energy              =    -448.59285565 Ry
     estimated scf accuracy    <       0.07516267 Ry

     iteration # 21     ecut=   140.00 Ry     beta= 0.70
     Davidson diagonalization with overlap
     ethr =  5.03E-06,  avg # of iterations =  2.1

     negative rho (up, down):  1.002E-03 0.000E+00

     total cpu time spent up to now is       93.9 secs

     total energy              =    -448.58138271 Ry
     estimated scf accuracy    <       0.07694071 Ry

     iteration # 22     ecut=   140.00 Ry     beta= 0.70
     Davidson diagonalization with overlap
     ethr =  5.03E-06,  avg # of iterations =  5.3

     negative rho (up, down):  9.843E-04 0.000E+00

     total cpu time spent up to now is      100.0 secs

     total energy              =    -448.58662772 Ry
     estimated scf accuracy    <       0.00020769 Ry

     iteration # 23     ecut=   140.00 Ry     beta= 0.70
     Davidson diagonalization with overlap
     ethr =  7.42E-07,  avg # of iterations =  3.0

     negative rho (up, down):  9.843E-04 0.000E+00

     total cpu time spent up to now is      104.3 secs

     total energy              =    -448.58663464 Ry
     estimated scf accuracy    <       0.00063160 Ry

     iteration # 24     ecut=   140.00 Ry     beta= 0.70
     Davidson diagonalization with overlap
     ethr =  7.42E-07,  avg # of iterations =  2.4

     negative rho (up, down):  9.814E-04 0.000E+00

     total cpu time spent up to now is      108.5 secs

     total energy              =    -448.58668324 Ry
     estimated scf accuracy    <       0.00001881 Ry

     iteration # 25     ecut=   140.00 Ry     beta= 0.70
     Davidson diagonalization with overlap
     ethr =  6.72E-08,  avg # of iterations =  3.3

     negative rho (up, down):  9.813E-04 0.000E+00

     total cpu time spent up to now is      112.7 secs

     total energy              =    -448.58668477 Ry
     estimated scf accuracy    <       0.00001059 Ry

     iteration # 26     ecut=   140.00 Ry     beta= 0.70
     Davidson diagonalization with overlap
     ethr =  3.78E-08,  avg # of iterations =  1.1

     negative rho (up, down):  9.816E-04 0.000E+00

     total cpu time spent up to now is      116.4 secs

     total energy              =    -448.58668538 Ry
     estimated scf accuracy    <       0.00000023 Ry

     iteration # 27     ecut=   140.00 Ry     beta= 0.70
     Davidson diagonalization with overlap
     ethr =  8.13E-10,  avg # of iterations =  4.9

     negative rho (up, down):  9.817E-04 0.000E+00

     total cpu time spent up to now is      122.0 secs

     total energy              =    -448.58668563 Ry
     estimated scf accuracy    <       0.00000006 Ry

     iteration # 28     ecut=   140.00 Ry     beta= 0.70
     Davidson diagonalization with overlap
     ethr =  2.10E-10,  avg # of iterations =  2.8

     negative rho (up, down):  9.816E-04 0.000E+00

     total cpu time spent up to now is      126.2 secs

     total energy              =    -448.58668563 Ry
     estimated scf accuracy    <       0.00000002 Ry

     iteration # 29     ecut=   140.00 Ry     beta= 0.70
     Davidson diagonalization with overlap
     ethr =  6.82E-11,  avg # of iterations =  1.9

     negative rho (up, down):  9.816E-04 0.000E+00

     total cpu time spent up to now is      130.0 secs

     End of self-consistent calculation

          k = 0.0000 0.0000 0.0000 (  4801 PWs)   bands (ev):

   -69.2092 -39.1183 -35.2713 -35.2713 -35.2713 -15.2144 -15.2144 -15.2144
    10.1528  13.8672  13.8672  16.6595  16.6595  16.6595  19.0111  19.0111
    20.9600  20.9600

          k = 0.0000 0.0000 0.1000 (  4813 PWs)   bands (ev):

   -69.2089 -39.1158 -35.2743 -35.2708 -35.2708 -15.2496 -15.2123 -15.2123
    10.3616  13.9676  13.9749  16.6441  16.6441  16.7050  18.8836  19.0585
    20.6601  20.6601

          k = 0.0000 0.0000 0.2000 (  4805 PWs)   bands (ev):

   -69.2080 -39.1091 -35.2821 -35.2696 -35.2696 -15.3412 -15.2067 -15.2067
    10.9632  14.2450  14.2600  16.6108  16.6108  16.8303  18.5183  19.1562
    19.9921  19.9921

          k = 0.0000 0.0000 0.3000 (  4801 PWs)   bands (ev):

   -69.2070 -39.1008 -35.2918 -35.2681 -35.2681 -15.4528 -15.1999 -15.1999
    11.8809  14.5153  14.7123  16.5872  16.5872  17.0006  17.9718  19.1419
    19.3002  19.3002

          k = 0.0000 0.0000 0.4000 (  4817 PWs)   bands (ev):

   -69.2061 -39.0942 -35.2995 -35.2669 -35.2669 -15.5419 -15.1944 -15.1944
    12.9673  14.5180  15.2398  16.5881  16.5881  17.1547  17.3650  18.7963
    18.7963  18.8383

          k = 0.0000 0.0000-0.5000 (  4828 PWs)   bands (ev):

   -69.2057 -39.0916 -35.3025 -35.2664 -35.2664 -15.5756 -15.1922 -15.1922
    13.8513  14.0900  15.5491  16.5953  16.5953  17.0246  17.2184  18.6019
    18.6103  18.6103

          k = 0.0000 0.1000 0.1000 (  4801 PWs)   bands (ev):

   -69.2086 -39.1130 -35.2754 -35.2725 -35.2704 -15.2508 -15.2434 -15.2100
    10.5654  14.0614  14.0843  16.5452  16.6174  16.8169  18.8694  19.0238
    20.3428  20.3612

          k = 0.0000 0.1000 0.2000 (  4803 PWs)   bands (ev):

   -69.2077 -39.1059 -35.2828 -35.2726 -35.2692 -15.3380 -15.2402 -15.2042
    11.1505  14.3121  14.3775  16.4521  16.5546  16.9413  18.5982  19.1098
    19.7218  19.7869

          k = 0.0000 0.1000 0.3000 (  4796 PWs)   bands (ev):

   -69.2066 -39.0970 -35.2926 -35.2719 -35.2677 -15.4482 -15.2323 -15.1970
    12.0367  14.5818  14.7891  16.4111  16.4881  16.9996  18.1496  18.9315
    19.3035  19.3265

          k = 0.0000 0.1000 0.4000 (  4792 PWs)   bands (ev):

   -69.2058 -39.0898 -35.3006 -35.2713 -35.2665 -15.5362 -15.2258 -15.1912
    13.0724  14.5702  15.2637  16.4259  16.4338  16.9484  17.6904  18.4888
    19.0519  19.1728

          k = 0.0000 0.1000-0.5000 (  4802 PWs)   bands (ev):

   -69.2054 -39.0871 -35.3036 -35.2710 -35.2660 -15.5695 -15.2233 -15.1889
    13.8868  14.1687  15.5385  16.3626  16.4680  16.8872  17.4908  18.2966
    18.9938  19.0341

          k = 0.0000 0.2000 0.2000 (  4785 PWs)   bands (ev):

   -69.2068 -39.0974 -35.2863 -35.2787 -35.2680 -15.3380 -15.3187 -15.1976
    11.6805  14.4574  14.7146  16.2471  16.4373  16.9747  18.6926  19.0693
    19.1614  19.5093

          k = 0.0000 0.2000 0.3000 (  4789 PWs)   bands (ev):

   -69.2058 -39.0869 -35.2951 -35.2816 -35.2666 -15.4362 -15.3161 -15.1894
    12.4546  14.5839  15.1527  16.1166  16.3544  16.8036  18.5181  18.6540
    19.2401  19.4497

          k = 0.0000 0.2000 0.4000 (  4794 PWs)   bands (ev):

   -69.2049 -39.0785 -35.3034 -35.2828 -35.2654 -15.5212 -15.3074 -15.1828
    13.2977  14.5090  15.5470  16.1009  16.3935  16.5249  18.2065  18.3881
    19.3829  19.5782

          k = 0.0000 0.2000-0.5000 (  4794 PWs)   bands (ev):

   -69.2046 -39.0752 -35.3066 -35.2831 -35.2650 -15.5534 -15.3040 -15.1802
    13.8604  14.2418  15.7161  16.1628  16.3440  16.4704  18.1419  18.1922
    19.4146  19.6776

          k = 0.0000 0.3000 0.3000 (  4797 PWs)   bands (ev):

   -69.2047 -39.0744 -35.2997 -35.2920 -35.2652 -15.4294 -15.4104 -15.1800
    12.9886  14.4730  15.6947  15.8844  16.3989  16.4420  18.5202  18.8391
    19.1304  19.7648

          k = 0.0000 0.3000 0.4000 (  4792 PWs)   bands (ev):

   -69.2038 -39.0643 -35.3070 -35.2969 -35.2642 -15.5026 -15.4070 -15.1724
    13.4473  14.2810  15.7855  16.0914  16.1602  16.7674  18.3518  18.8593
    19.3426  20.1178

          k = 0.0000 0.3000-0.5000 (  4800 PWs)   bands (ev):

   -69.2035 -39.0604 -35.3104 -35.2981 -35.2637 -15.5335 -15.4025 -15.1695
    13.6620  14.1444  15.8270  15.8859  16.3136  17.1715  18.0906  18.8624
    19.5226  20.3181

          k = 0.0000 0.4000 0.4000 (  4794 PWs)   bands (ev):

   -69.2030 -39.0528 -35.3106 -35.3076 -35.2631 -15.4907 -15.4835 -15.1640
    13.4636  14.0815  15.5978  15.7582  16.8928  17.3505  18.5853  19.0571
    19.2680  20.5477

          k = 0.0000 0.4000-0.5000 (  4776 PWs)   bands (ev):

   -69.2027 -39.0484 -35.3135 -35.3101 -35.2627 -15.5174 -15.4813 -15.1608
    13.4497  14.0075  15.5799  15.5913  17.1829  18.0959  18.1426  19.1985
    19.3340  20.7681

          k = 0.0000-0.5000-0.5000 (  4780 PWs)   bands (ev):

   -69.2023 -39.0438 -35.3147 -35.3147 -35.2623 -15.5112 -15.5112 -15.1574
    13.3649  13.9511  15.4902  15.4902  17.7653  18.1970  18.7152  18.7152
    19.4578  20.9306

          k = 0.1000 0.1000 0.1000 (  4812 PWs)   bands (ev):

   -69.2082 -39.1101 -35.2749 -35.2749 -35.2711 -15.2511 -15.2413 -15.2413
    10.7650  14.1725  14.1725  16.5161  16.5161  16.8987  18.9342  18.9342
    19.8711  20.6342

          k = 0.1000 0.1000 0.2000 (  4789 PWs)   bands (ev):

   -69.2074 -39.1025 -35.2830 -35.2737 -35.2712 -15.3347 -15.2394 -15.2356
    11.3365  14.4267  14.4477  16.3882  16.4401  16.9560  18.6780  19.0684
    19.4056  19.9643

          k = 0.1000 0.1000 0.3000 (  4799 PWs)   bands (ev):

   -69.2063 -39.0932 -35.2933 -35.2721 -35.2710 -15.4437 -15.2300 -15.2286
    12.1961  14.7059  14.8114  16.3375  16.3380  16.8862  18.3032  18.9278
    19.2890  19.3769

          k = 0.1000 0.1000 0.4000 (  4799 PWs)   bands (ev):

   -69.2054 -39.0856 -35.3015 -35.2709 -35.2709 -15.5307 -15.2229 -15.2223
    13.1888  14.6621  15.2442  16.2076  16.4171  16.7663  17.9267  18.5945
    18.8165  19.5638

          k = 0.1000 0.1000-0.5000 (  4804 PWs)   bands (ev):

   -69.2051 -39.0827 -35.3046 -35.2709 -35.2704 -15.5637 -15.2208 -15.2194
    13.9489  14.2663  15.4939  16.0997  16.5424  16.6870  17.7571  18.3702
    18.6484  19.6884

          k = 0.1000 0.2000 0.2000 (  4806 PWs)   bands (ev):

   -69.2065 -39.0938 -35.2857 -35.2795 -35.2714 -15.3338 -15.3165 -15.2303
    11.8615  14.5872  14.7667  16.2008  16.3093  16.8242  18.7768  19.0440
    19.2042  19.6787

          k = 0.1000 0.2000 0.3000 (  4804 PWs)   bands (ev):

   -69.2054 -39.0831 -35.2951 -35.2817 -35.2707 -15.4321 -15.3131 -15.2216
    12.6241  14.7336  15.1553  16.0617  16.2160  16.5700  18.6392  18.8359
    19.2255  19.5764

          k = 0.1000 0.2000 0.4000 (  4796 PWs)   bands (ev):

   -69.2046 -39.0744 -35.3038 -35.2824 -35.2699 -15.5165 -15.3044 -15.2144
    13.4449  14.6570  15.4530  15.9831  16.2796  16.4358  18.4000  18.4743
    19.0330  20.0423

          k = 0.1000 0.2000-0.5000 (  4804 PWs)   bands (ev):

   -69.2042 -39.0710 -35.3072 -35.2827 -35.2695 -15.5486 -15.3011 -15.2116
    13.9840  14.3811  15.5812  15.9416  16.2957  16.5307  18.2040  18.3559
    18.8906  20.4133

          k = 0.1000 0.3000 0.3000 (  4792 PWs)   bands (ev):

   -69.2044 -39.0706 -35.2991 -35.2923 -35.2695 -15.4250 -15.4081 -15.2120
    13.1678  14.6234  15.6872  15.8413  16.2023  16.2537  18.6255  18.9932
    19.0880  19.9874

          k = 0.1000 0.3000 0.4000 (  4787 PWs)   bands (ev):

   -69.2035 -39.0605 -35.3068 -35.2966 -35.2686 -15.4990 -15.4042 -15.2042
    13.6187  14.4308  15.7340  15.8961  16.1727  16.6022  18.3885  18.9386
    19.1382  20.5297

          k = 0.1000 0.3000-0.5000 (  4766 PWs)   bands (ev):

   -69.2032 -39.0566 -35.3104 -35.2975 -35.2682 -15.5299 -15.3999 -15.2012
    13.8179  14.2992  15.7534  15.7670  16.2726  17.0247  18.1122  18.9942
    19.0301  20.7100

          k = 0.1000 0.4000 0.4000 (  4780 PWs)   bands (ev):

   -69.2027 -39.0492 -35.3099 -35.3073 -35.2675 -15.4876 -15.4812 -15.1959
    13.6329  14.2340  15.5660  15.6948  16.8187  17.1319  18.4666  18.8173
    19.3727  20.8229

          k = 0.1000 0.4000-0.5000 (  4772 PWs)   bands (ev):

   -69.2024 -39.0448 -35.3131 -35.3095 -35.2671 -15.5147 -15.4789 -15.1927
    13.6138  14.1623  15.5460  15.5532  17.0824  17.8047  18.0882  18.7791
    19.4428  20.9290

          k = 0.1000-0.5000-0.5000 (  4772 PWs)   bands (ev):

   -69.2020 -39.0404 -35.3141 -35.3141 -35.2667 -15.5089 -15.5089 -15.1895
    13.5307  14.1053  15.4648  15.4648  17.7691  18.1981  18.2043  18.2043
    19.5621  21.5824

          k = 0.2000 0.2000 0.2000 (  4812 PWs)   bands (ev):

   -69.2057 -39.0845 -35.2844 -35.2844 -35.2775 -15.3276 -15.3106 -15.3106
    12.3681  14.9109  14.9109  16.0807  16.0807  16.4312  18.9670  18.9670
    19.4619  19.9326

          k = 0.2000 0.2000 0.3000 (  4790 PWs)   bands (ev):

   -69.2046 -39.0730 -35.2954 -35.2827 -35.2801 -15.4214 -15.3070 -15.3033
    13.0837  15.1119  15.1613  15.9291  15.9530  16.1233  18.8450  18.9687
    19.3184  19.9271

          k = 0.2000 0.2000 0.4000 (  4794 PWs)   bands (ev):

   -69.2037 -39.0637 -35.3049 -35.2815 -35.2813 -15.5044 -15.2973 -15.2958
    13.8036  14.9408  15.3129  15.7849  16.0492  16.2661  18.5589  18.7087
    18.9271  20.4839

          k = 0.2000 0.2000-0.5000 (  4792 PWs)   bands (ev):

   -69.2034 -39.0601 -35.3086 -35.2820 -35.2808 -15.5360 -15.2951 -15.2915
    14.2308  14.6412  15.4186  15.7052  16.1279  16.4989  18.2213  18.6359
    18.8079  20.5935

          k = 0.2000 0.3000 0.3000 (  4791 PWs)   bands (ev):

   -69.2035 -39.0605 -35.2976 -35.2931 -35.2807 -15.4133 -15.4021 -15.2951
    13.6643  15.0188  15.6530  15.7398  15.7729  15.8881  18.7368  18.9279
    19.4200  20.1874

          k = 0.2000 0.3000 0.4000 (  4782 PWs)   bands (ev):

   -69.2027 -39.0504 -35.3064 -35.2957 -35.2802 -15.4895 -15.3969 -15.2868
    14.0905  14.7991  15.5835  15.6409  15.9950  16.2828  18.4329  18.6941
    19.3999  20.5240

          k = 0.2000 0.3000-0.5000 (  4780 PWs)   bands (ev):

   -69.2024 -39.0465 -35.3104 -35.2961 -35.2799 -15.5203 -15.3930 -15.2836
    14.2381  14.6708  15.5418  15.6096  16.0956  16.6858  18.1154  18.5988
    19.3714  20.6976

          k = 0.2000 0.4000 0.4000 (  4789 PWs)   bands (ev):

   -69.2018 -39.0396 -35.3083 -35.3066 -35.2791 -15.4794 -15.4751 -15.2789
    14.1107  14.6220  15.4917  15.5670  16.5805  16.5872  18.3637  18.4144
    19.7069  20.7841

          k = 0.2000 0.4000-0.5000 (  4784 PWs)   bands (ev):

   -69.2015 -39.0354 -35.3119 -35.3079 -35.2787 -15.5077 -15.4726 -15.2759
    14.0767  14.5598  15.4703  15.4744  16.7318  17.1348  18.0226  18.3742
    19.7735  20.9838

          k = 0.2000-0.5000-0.5000 (  4760 PWs)   bands (ev):

   -69.2012 -39.0312 -35.3124 -35.3124 -35.2782 -15.5028 -15.5028 -15.2729
    14.0017  14.5077  15.4086  15.4086  17.3543  17.3543  17.7789  18.1833
    19.8816  21.2325

          k = 0.3000 0.3000 0.3000 (  4788 PWs)   bands (ev):

   -69.2025 -39.0480 -35.2958 -35.2958 -35.2929 -15.4009 -15.3946 -15.3946
    14.3112  15.2846  15.5693  15.5693  15.6452  15.6452  18.6740  18.6740
    19.9780  19.9780

          k = 0.3000 0.3000 0.4000 (  4795 PWs)   bands (ev):

   -69.2017 -39.0378 -35.3062 -35.2946 -35.2943 -15.4778 -15.3885 -15.3870
    14.6592  15.0418  15.4871  15.5722  15.7250  16.0894  18.3376  18.4734
    19.9115  20.5338

          k = 0.3000 0.3000-0.5000 (  4788 PWs)   bands (ev):

   -69.2013 -39.0339 -35.3104 -35.2949 -35.2937 -15.5086 -15.3861 -15.3825
    14.6718  14.9570  15.4578  15.5392  15.8954  16.4306  18.0383  18.4036
    19.8975  20.7766

          k = 0.3000 0.4000 0.4000 (  4777 PWs)   bands (ev):

   -69.2008 -39.0276 -35.3064 -35.3056 -35.2933 -15.4692 -15.4676 -15.3802
    14.7730  15.0336  15.4274  15.5516  16.0093  16.2108  18.1568  18.2608
    20.2450  20.8075

          k = 0.3000 0.4000-0.5000 (  4790 PWs)   bands (ev):

   -69.2005 -39.0237 -35.3104 -35.3060 -35.2929 -15.4990 -15.4649 -15.3774
    14.7239  14.9990  15.4335  15.4490  16.2187  16.5007  17.9310  18.2043
    20.3028  21.0376

          k = 0.3000-0.5000-0.5000 (  4772 PWs)   bands (ev):

   -69.2002 -39.0199 -35.3104 -35.3104 -35.2923 -15.4954 -15.4954 -15.3747
    14.6881  14.9965  15.3720  15.3720  16.5964  16.5964  17.7910  18.1052
    20.4065  21.2580

          k = 0.4000 0.4000 0.4000 (  4767 PWs)   bands (ev):

   -69.2000 -39.0180 -35.3050 -35.3048 -35.3048 -15.4615 -15.4615 -15.4607
    15.0742  15.4320  15.4320  15.6545  15.8425  15.8425  18.0461  18.0461
    20.8388  20.8388

          k = 0.4000 0.4000-0.5000 (  4760 PWs)   bands (ev):

   -69.1997 -39.0143 -35.3092 -35.3046 -35.3042 -15.4920 -15.4592 -15.4578
    15.1911  15.2361  15.5116  15.6246  15.8261  16.1001  17.8750  18.0172
    20.8519  21.1223

          k = 0.4000-0.5000-0.5000 (  4764 PWs)   bands (ev):

   -69.1993 -39.0106 -35.3088 -35.3088 -35.3038 -15.4893 -15.4893 -15.4561
    15.3774  15.3959  15.4135  15.4135  16.0282  16.0282  17.8009  17.9325
    20.9986  21.2787

          k =-0.5000-0.5000-0.5000 (  4776 PWs)   bands (ev):

   -69.1990 -39.0071 -35.3081 -35.3081 -35.3081 -15.4870 -15.4870 -15.4870
    15.5178  15.5178  15.5178  15.7401  15.7401  15.7401  17.8046  17.8046
    21.2866  21.2866

     the Fermi energy is    17.7495 ev

!    total energy              =    -448.58668563 Ry
     estimated scf accuracy    <          8.8E-10 Ry
     smearing contrib. (-TS)   =      -0.00005150 Ry
     internal energy E=F+TS    =    -448.58663413 Ry

     The total energy is F=E-TS. E is the sum of the following terms:
     one-electron contribution =    -151.36043546 Ry
     hartree contribution      =      91.63958962 Ry
     xc contribution           =     -52.89143106 Ry
     ewald contribution        =    -259.82070277 Ry
     one-center paw contrib.   =     -76.15365447 Ry

     convergence has been achieved in  29 iterations

     negative rho (up, down):  9.816E-04 0.000E+00

     Forces acting on atoms (cartesian axes, Ry/au):

     atom    1 type  1   force =     0.00000000    0.00000000    0.00000000
     atom    2 type  2   force =     0.00000000    0.00000000    0.00000000

     Total force =     0.000000     Total SCF correction =     0.000000


     Computing stress (Cartesian axis) and pressure


     negative rho (up, down):  9.816E-04 0.000E+00
          total   stress  (Ry/bohr**3)                   (kbar)     P=       29.08
   0.00019768   0.00000000   0.00000000           29.08        0.00        0.00
   0.00000000   0.00019768   0.00000000            0.00       29.08        0.00
   0.00000000   0.00000000   0.00019768            0.00        0.00       29.08


     Writing all to output data dir ./out/TiFe11.save/ :
     XML data file, charge density, pseudopotentials, collected wavefunctions

     init_run     :      1.97s CPU      2.12s WALL (       1 calls)
     electrons    :    120.16s CPU    127.73s WALL (       1 calls)
     forces       :      0.70s CPU      0.79s WALL (       1 calls)
     stress       :      3.24s CPU      3.48s WALL (       1 calls)

     Called by init_run:
     wfcinit      :      1.31s CPU      1.34s WALL (       1 calls)
     potinit      :      0.18s CPU      0.20s WALL (       1 calls)
     hinit0       :      0.23s CPU      0.24s WALL (       1 calls)

     Called by electrons:
     c_bands      :     90.35s CPU     92.54s WALL (      29 calls)
     sum_band     :     18.22s CPU     21.25s WALL (      29 calls)
     v_of_rho     :      2.17s CPU      2.23s WALL (      30 calls)
     newd         :      6.19s CPU      8.54s WALL (      30 calls)
     PAW_pot      :      2.97s CPU      3.00s WALL (      30 calls)
     mix_rho      :      0.34s CPU      0.36s WALL (      29 calls)

     Called by c_bands:
     init_us_2    :      1.94s CPU      1.96s WALL (    3416 calls)
     cegterg      :     86.51s CPU     88.67s WALL (    1624 calls)

     Called by *egterg:
     cdiaghg      :      1.87s CPU      1.89s WALL (    5774 calls)
     h_psi        :     65.19s CPU     67.25s WALL (    5830 calls)
     s_psi        :      3.74s CPU      3.76s WALL (    5830 calls)
     g_psi        :      0.18s CPU      0.18s WALL (    4150 calls)

     Called by h_psi:
     h_psi:calbec :      6.06s CPU      6.20s WALL (    5830 calls)
     vloc_psi     :     54.71s CPU     56.61s WALL (    5830 calls)
     add_vuspsi   :      3.84s CPU      3.86s WALL (    5830 calls)

     General routines
     calbec       :      8.88s CPU      9.07s WALL (    8406 calls)
     fft          :      1.08s CPU      1.16s WALL (     413 calls)
     ffts         :      0.03s CPU      0.03s WALL (      59 calls)
     fftw         :     44.81s CPU     46.51s WALL (  176126 calls)
     interpolate  :      0.13s CPU      0.14s WALL (      30 calls)

     Parallel routines

     PWSCF        :   2m 6.30s CPU   2m14.42s WALL


   This run was terminated on:   1:13:40  30Oct2025            

=------------------------------------------------------------------------------=
   JOB DONE.
=------------------------------------------------------------------------------=
