
     Program PWSCF v.7.4.1 starts on 30Oct2025 at  1: 5:18 

     This program is part of the open-source Quantum ESPRESSO suite
     for quantum simulation of materials; please cite
         "P. Giannozzi et al., J. Phys.:Condens. Matter 21 395502 (2009);
         "P. Giannozzi et al., J. Phys.:Condens. Matter 29 465901 (2017);
         "P. Giannozzi et al., J. Chem. Phys. 152 154105 (2020);
          URL http://www.quantum-espresso.org", 
     in publications or presentations arising from this work. More details at
     http://www.quantum-espresso.org/quote

     Parallel version (MPI), running on     4 processors

     MPI processes distributed on     1 nodes
     4900 MiB available memory on the printing compute node when the environment starts

     Reading input from TiFe7.in

     Current dimensions of program PWSCF are:
     Max number of different atomic species (ntypx) = 10
     Max number of k-points (npk) =  40000
     Max angular momentum in pseudopotentials (lmaxx) =  4
     file Fe.pbe-spn-kjpaw_psl.0.2.1.UPF: wavefunction(s)  3D renormalized

     IMPORTANT: XC functional enforced from input :
     Exchange-correlation= PBE
                           (   1   4   3   4   0   0   0)
     Any further DFT definition will be discarded
     Please, verify this is what you really want

     Message from routine setup:
     using ibrav=0 with symmetry is DISCOURAGED, use correct ibrav instead

     R & G space division:  proc/nbgrp/npool/nimage =       4
     Subspace diagonalization in iterative solution of the eigenvalue problem:
     a serial algorithm will be used


     Parallelization info
     --------------------
     sticks:   dense  smooth     PW     G-vecs:    dense   smooth      PW
     Min         611     243     73                22904     5757     971
     Max         613     244     74                22907     5760     974
     Sum        2449     973    293                91623    23031    3887

     Using Slab Decomposition



     bravais-lattice index     =            0
     lattice parameter (alat)  =       5.5533  a.u.
     unit-cell volume          =     171.2590 (a.u.)^3
     number of atoms/cell      =            2
     number of atomic types    =            2
     number of electrons       =        28.00
     number of Kohn-Sham states=           18
     kinetic-energy cutoff     =     100.0000  Ry
     charge density cutoff     =    1000.0000  Ry
     scf convergence threshold =      1.0E-08
     mixing beta               =       0.7000
     number of iterations used =            8  plain     mixing
     Exchange-correlation= PBE
                           (   1   4   3   4   0   0   0)

     celldm(1)=   5.553300  celldm(2)=   0.000000  celldm(3)=   0.000000
     celldm(4)=   0.000000  celldm(5)=   0.000000  celldm(6)=   0.000000

     crystal axes: (cart. coord. in units of alat)
               a(1) = (   1.000000   0.000000   0.000000 )  
               a(2) = (   0.000000   1.000000   0.000000 )  
               a(3) = (   0.000000   0.000000   1.000000 )  

     reciprocal axes: (cart. coord. in units 2 pi/alat)
               b(1) = (  1.000000  0.000000  0.000000 )  
               b(2) = (  0.000000  1.000000  0.000000 )  
               b(3) = (  0.000000  0.000000  1.000000 )  


     PseudoPot. # 1 for Fe read from file:
     /home/rafi/QE/qe-7.4.1/pseudo/Fe.pbe-spn-kjpaw_psl.0.2.1.UPF
     MD5 check sum: e86618425769142926afa95317d90200
     Pseudo is Projector augmented-wave + core cor, Zval = 16.0
     Generated using "atomic" code by A. Dal Corso  v.5.0.99 svn rev. 10869
     Shape of augmentation charge: PSQ
     Using radial grid of 1191 points,  6 beta functions with: 
                l(1) =   0
                l(2) =   0
                l(3) =   1
                l(4) =   1
                l(5) =   2
                l(6) =   2
     Q(r) pseudized with 0 coefficients 


     PseudoPot. # 2 for Ti read from file:
     /home/rafi/QE/qe-7.4.1/pseudo/ti_pbe_v1.4.uspp.F.UPF
     MD5 check sum: 88a00a6731bd790ddea75d31a80cb452
     Pseudo is Ultrasoft + core correction, Zval = 12.0
     Generated by new atomic code, or converted to UPF format
     Using radial grid of  851 points,  6 beta functions with: 
                l(1) =   0
                l(2) =   0
                l(3) =   1
                l(4) =   1
                l(5) =   2
                l(6) =   2
     Q(r) pseudized with  6 coefficients,  rinner =    1.000   1.000   1.000
                                                       1.000   1.000

     atomic species   valence    mass     pseudopotential
     Fe               16.00    55.84500     Fe( 1.00)
     Ti               12.00    47.86700     Ti( 1.00)

     48 Sym. Ops., with inversion, found



   Cartesian axes

     site n.     atom                  positions (alat units)
         1        Fe     tau(   1) = (   0.5000000   0.5000000   0.5000000  )
         2        Ti     tau(   2) = (   0.0000000   0.0000000   0.0000000  )

     number of k points=    56  Marzari-Vanderbilt smearing, width (Ry)=  0.0050
                       cart. coord. in units 2pi/alat
        k(    1) = (   0.0000000   0.0000000   0.0000000), wk =   0.0020000
        k(    2) = (   0.0000000   0.0000000   0.1000000), wk =   0.0120000
        k(    3) = (   0.0000000   0.0000000   0.2000000), wk =   0.0120000
        k(    4) = (   0.0000000   0.0000000   0.3000000), wk =   0.0120000
        k(    5) = (   0.0000000   0.0000000   0.4000000), wk =   0.0120000
        k(    6) = (   0.0000000   0.0000000  -0.5000000), wk =   0.0060000
        k(    7) = (   0.0000000   0.1000000   0.1000000), wk =   0.0240000
        k(    8) = (   0.0000000   0.1000000   0.2000000), wk =   0.0480000
        k(    9) = (   0.0000000   0.1000000   0.3000000), wk =   0.0480000
        k(   10) = (   0.0000000   0.1000000   0.4000000), wk =   0.0480000
        k(   11) = (   0.0000000   0.1000000  -0.5000000), wk =   0.0240000
        k(   12) = (   0.0000000   0.2000000   0.2000000), wk =   0.0240000
        k(   13) = (   0.0000000   0.2000000   0.3000000), wk =   0.0480000
        k(   14) = (   0.0000000   0.2000000   0.4000000), wk =   0.0480000
        k(   15) = (   0.0000000   0.2000000  -0.5000000), wk =   0.0240000
        k(   16) = (   0.0000000   0.3000000   0.3000000), wk =   0.0240000
        k(   17) = (   0.0000000   0.3000000   0.4000000), wk =   0.0480000
        k(   18) = (   0.0000000   0.3000000  -0.5000000), wk =   0.0240000
        k(   19) = (   0.0000000   0.4000000   0.4000000), wk =   0.0240000
        k(   20) = (   0.0000000   0.4000000  -0.5000000), wk =   0.0240000
        k(   21) = (   0.0000000  -0.5000000  -0.5000000), wk =   0.0060000
        k(   22) = (   0.1000000   0.1000000   0.1000000), wk =   0.0160000
        k(   23) = (   0.1000000   0.1000000   0.2000000), wk =   0.0480000
        k(   24) = (   0.1000000   0.1000000   0.3000000), wk =   0.0480000
        k(   25) = (   0.1000000   0.1000000   0.4000000), wk =   0.0480000
        k(   26) = (   0.1000000   0.1000000  -0.5000000), wk =   0.0240000
        k(   27) = (   0.1000000   0.2000000   0.2000000), wk =   0.0480000
        k(   28) = (   0.1000000   0.2000000   0.3000000), wk =   0.0960000
        k(   29) = (   0.1000000   0.2000000   0.4000000), wk =   0.0960000
        k(   30) = (   0.1000000   0.2000000  -0.5000000), wk =   0.0480000
        k(   31) = (   0.1000000   0.3000000   0.3000000), wk =   0.0480000
        k(   32) = (   0.1000000   0.3000000   0.4000000), wk =   0.0960000
        k(   33) = (   0.1000000   0.3000000  -0.5000000), wk =   0.0480000
        k(   34) = (   0.1000000   0.4000000   0.4000000), wk =   0.0480000
        k(   35) = (   0.1000000   0.4000000  -0.5000000), wk =   0.0480000
        k(   36) = (   0.1000000  -0.5000000  -0.5000000), wk =   0.0120000
        k(   37) = (   0.2000000   0.2000000   0.2000000), wk =   0.0160000
        k(   38) = (   0.2000000   0.2000000   0.3000000), wk =   0.0480000
        k(   39) = (   0.2000000   0.2000000   0.4000000), wk =   0.0480000
        k(   40) = (   0.2000000   0.2000000  -0.5000000), wk =   0.0240000
        k(   41) = (   0.2000000   0.3000000   0.3000000), wk =   0.0480000
        k(   42) = (   0.2000000   0.3000000   0.4000000), wk =   0.0960000
        k(   43) = (   0.2000000   0.3000000  -0.5000000), wk =   0.0480000
        k(   44) = (   0.2000000   0.4000000   0.4000000), wk =   0.0480000
        k(   45) = (   0.2000000   0.4000000  -0.5000000), wk =   0.0480000
        k(   46) = (   0.2000000  -0.5000000  -0.5000000), wk =   0.0120000
        k(   47) = (   0.3000000   0.3000000   0.3000000), wk =   0.0160000
        k(   48) = (   0.3000000   0.3000000   0.4000000), wk =   0.0480000
        k(   49) = (   0.3000000   0.3000000  -0.5000000), wk =   0.0240000
        k(   50) = (   0.3000000   0.4000000   0.4000000), wk =   0.0480000
        k(   51) = (   0.3000000   0.4000000  -0.5000000), wk =   0.0480000
        k(   52) = (   0.3000000  -0.5000000  -0.5000000), wk =   0.0120000
        k(   53) = (   0.4000000   0.4000000   0.4000000), wk =   0.0160000
        k(   54) = (   0.4000000   0.4000000  -0.5000000), wk =   0.0240000
        k(   55) = (   0.4000000  -0.5000000  -0.5000000), wk =   0.0120000
        k(   56) = (  -0.5000000  -0.5000000  -0.5000000), wk =   0.0020000

     Dense  grid:    91623 G-vectors     FFT dimensions: (  60,  60,  60)

     Smooth grid:    23031 G-vectors     FFT dimensions: (  36,  36,  36)

     Estimated max dynamical RAM per process >     100.84 MB

     Estimated total dynamical RAM >     403.35 MB

     Check: negative core charge=   -0.000007

     Initial potential from superposition of free atoms

     starting charge      26.9995, renormalised to      28.0000

     negative rho (up, down):  1.439E-03 0.000E+00
     Starting wfcs are   23 randomized atomic wfcs
     Checking if some PAW data can be deallocated... 

     total cpu time spent up to now is        1.4 secs

     Self-consistent Calculation

     iteration #  1     ecut=   100.00 Ry     beta= 0.70
     Davidson diagonalization with overlap
     ethr =  1.00E-02,  avg # of iterations =  2.2

     negative rho (up, down):  1.219E-04 0.000E+00

     total cpu time spent up to now is        3.7 secs

     total energy              =    -434.90268093 Ry
     estimated scf accuracy    <      17.45239640 Ry

     iteration #  2     ecut=   100.00 Ry     beta= 0.70
     Davidson diagonalization with overlap
     ethr =  1.00E-02,  avg # of iterations =  6.1

     negative rho (up, down):  4.024E-05 0.000E+00

     total cpu time spent up to now is        7.3 secs

     WARNING: integrated charge=    28.00012128, expected=    28.00000000

     total energy              =    -448.53176236 Ry
     estimated scf accuracy    <      65.98889276 Ry

     iteration #  3     ecut=   100.00 Ry     beta= 0.70
     Davidson diagonalization with overlap
     ethr =  1.00E-02,  avg # of iterations =  3.2

     negative rho (up, down):  2.411E-04 0.000E+00

     total cpu time spent up to now is        9.9 secs

     WARNING: integrated charge=    28.00001686, expected=    28.00000000

     total energy              =    -448.58877373 Ry
     estimated scf accuracy    <      16.76430283 Ry

     iteration #  4     ecut=   100.00 Ry     beta= 0.70
     Davidson diagonalization with overlap
     ethr =  1.00E-02,  avg # of iterations =  2.1

     negative rho (up, down):  2.687E-04 0.000E+00

     total cpu time spent up to now is       12.0 secs

     WARNING: integrated charge=    28.00001798, expected=    28.00000000

     total energy              =    -449.10565370 Ry
     estimated scf accuracy    <       4.82806519 Ry

     iteration #  5     ecut=   100.00 Ry     beta= 0.70
     Davidson diagonalization with overlap
     ethr =  1.00E-02,  avg # of iterations =  1.0

     negative rho (up, down):  2.934E-04 0.000E+00

     total cpu time spent up to now is       13.8 secs

     WARNING: integrated charge=    28.00002108, expected=    28.00000000

     total energy              =    -449.12004574 Ry
     estimated scf accuracy    <       4.38164469 Ry

     iteration #  6     ecut=   100.00 Ry     beta= 0.70
     Davidson diagonalization with overlap
     ethr =  1.00E-02,  avg # of iterations =  1.0

     negative rho (up, down):  1.131E-03 0.000E+00

     total cpu time spent up to now is       15.6 secs

     total energy              =    -447.87785388 Ry
     estimated scf accuracy    <       4.55000087 Ry

     iteration #  7     ecut=   100.00 Ry     beta= 0.70
     Davidson diagonalization with overlap
     ethr =  1.00E-02,  avg # of iterations =  3.4

     negative rho (up, down):  9.982E-04 0.000E+00

     total cpu time spent up to now is       17.8 secs

     total energy              =    -448.56259164 Ry
     estimated scf accuracy    <       3.76501326 Ry

     iteration #  8     ecut=   100.00 Ry     beta= 0.70
     Davidson diagonalization with overlap
     ethr =  1.00E-02,  avg # of iterations =  1.0

     negative rho (up, down):  7.533E-04 0.000E+00

     total cpu time spent up to now is       19.6 secs

     WARNING: integrated charge=    28.00000697, expected=    28.00000000

     total energy              =    -448.49556483 Ry
     estimated scf accuracy    <       0.97089360 Ry

     iteration #  9     ecut=   100.00 Ry     beta= 0.70
     Davidson diagonalization with overlap
     ethr =  3.47E-03,  avg # of iterations =  1.8

     negative rho (up, down):  7.625E-04 0.000E+00

     total cpu time spent up to now is       21.5 secs

     WARNING: integrated charge=    28.00000613, expected=    28.00000000

     total energy              =    -448.59697906 Ry
     estimated scf accuracy    <       0.11327145 Ry

     iteration # 10     ecut=   100.00 Ry     beta= 0.70
     Davidson diagonalization with overlap
     ethr =  4.05E-04,  avg # of iterations =  2.1

     negative rho (up, down):  9.220E-04 0.000E+00

     total cpu time spent up to now is       23.4 secs

     WARNING: integrated charge=    28.00000291, expected=    28.00000000

     total energy              =    -448.57903527 Ry
     estimated scf accuracy    <       0.10995554 Ry

     iteration # 11     ecut=   100.00 Ry     beta= 0.70
     Davidson diagonalization with overlap
     ethr =  3.93E-04,  avg # of iterations =  1.8

     negative rho (up, down):  1.232E-03 0.000E+00

     total cpu time spent up to now is       25.3 secs

     total energy              =    -448.58836747 Ry
     estimated scf accuracy    <       0.01424772 Ry

     iteration # 12     ecut=   100.00 Ry     beta= 0.70
     Davidson diagonalization with overlap
     ethr =  5.09E-05,  avg # of iterations =  6.3

     negative rho (up, down):  7.353E-04 0.000E+00

     total cpu time spent up to now is       28.4 secs

     WARNING: integrated charge=    28.00000617, expected=    28.00000000

     total energy              =    -448.42974642 Ry
     estimated scf accuracy    <       1.14245934 Ry

     iteration # 13     ecut=   100.00 Ry     beta= 0.70
     Davidson diagonalization with overlap
     ethr =  5.09E-05,  avg # of iterations =  5.9

     negative rho (up, down):  1.586E-03 0.000E+00

     total cpu time spent up to now is       31.6 secs

     WARNING: integrated charge=    27.99999010, expected=    28.00000000

     total energy              =    -448.48026162 Ry
     estimated scf accuracy    <       0.42207420 Ry

     iteration # 14     ecut=   100.00 Ry     beta= 0.70
     Davidson diagonalization with overlap
     ethr =  5.09E-05,  avg # of iterations =  7.3

     negative rho (up, down):  1.141E-03 0.000E+00

     total cpu time spent up to now is       35.5 secs

     total energy              =    -448.38572251 Ry
     estimated scf accuracy    <       6.77728738 Ry

     iteration # 15     ecut=   100.00 Ry     beta= 0.70
     Davidson diagonalization with overlap
     ethr =  5.09E-05,  avg # of iterations =  6.1

     negative rho (up, down):  1.070E-03 0.000E+00

     total cpu time spent up to now is       38.5 secs

     total energy              =    -448.60442653 Ry
     estimated scf accuracy    <       0.26706518 Ry

     iteration # 16     ecut=   100.00 Ry     beta= 0.70
     Davidson diagonalization with overlap
     ethr =  5.09E-05,  avg # of iterations =  3.4

     negative rho (up, down):  9.915E-04 0.000E+00

     total cpu time spent up to now is       40.9 secs

     total energy              =    -448.57442889 Ry
     estimated scf accuracy    <       0.11155706 Ry

     iteration # 17     ecut=   100.00 Ry     beta= 0.70
     Davidson diagonalization with overlap
     ethr =  5.09E-05,  avg # of iterations =  4.1

     negative rho (up, down):  9.403E-04 0.000E+00

     total cpu time spent up to now is       43.7 secs

     total energy              =    -448.58428655 Ry
     estimated scf accuracy    <       0.01309046 Ry

     iteration # 18     ecut=   100.00 Ry     beta= 0.70
     Davidson diagonalization with overlap
     ethr =  4.68E-05,  avg # of iterations =  1.9

     negative rho (up, down):  9.368E-04 0.000E+00

     total cpu time spent up to now is       45.7 secs

     total energy              =    -448.58544701 Ry
     estimated scf accuracy    <       0.00039882 Ry

     iteration # 19     ecut=   100.00 Ry     beta= 0.70
     Davidson diagonalization with overlap
     ethr =  1.42E-06,  avg # of iterations =  6.2

     negative rho (up, down):  9.417E-04 0.000E+00

     total cpu time spent up to now is       49.1 secs

     total energy              =    -448.58605222 Ry
     estimated scf accuracy    <       0.00119305 Ry

     iteration # 20     ecut=   100.00 Ry     beta= 0.70
     Davidson diagonalization with overlap
     ethr =  1.42E-06,  avg # of iterations =  1.1

     negative rho (up, down):  9.431E-04 0.000E+00

     total cpu time spent up to now is       51.0 secs

     total energy              =    -448.58605274 Ry
     estimated scf accuracy    <       0.00108435 Ry

     iteration # 21     ecut=   100.00 Ry     beta= 0.70
     Davidson diagonalization with overlap
     ethr =  1.42E-06,  avg # of iterations =  1.0

     negative rho (up, down):  9.358E-04 0.000E+00

     total cpu time spent up to now is       52.7 secs

     total energy              =    -448.58616770 Ry
     estimated scf accuracy    <       0.00123470 Ry

     iteration # 22     ecut=   100.00 Ry     beta= 0.70
     Davidson diagonalization with overlap
     ethr =  1.42E-06,  avg # of iterations =  1.1

     negative rho (up, down):  9.514E-04 0.000E+00

     total cpu time spent up to now is       54.6 secs

     total energy              =    -448.58601123 Ry
     estimated scf accuracy    <       0.00285233 Ry

     iteration # 23     ecut=   100.00 Ry     beta= 0.70
     Davidson diagonalization with overlap
     ethr =  1.42E-06,  avg # of iterations =  1.1

     negative rho (up, down):  9.622E-04 0.000E+00

     total cpu time spent up to now is       56.4 secs

     total energy              =    -448.58597586 Ry
     estimated scf accuracy    <       0.00118224 Ry

     iteration # 24     ecut=   100.00 Ry     beta= 0.70
     Davidson diagonalization with overlap
     ethr =  1.42E-06,  avg # of iterations =  1.1

     negative rho (up, down):  9.688E-04 0.000E+00

     total cpu time spent up to now is       58.1 secs

     total energy              =    -448.58593226 Ry
     estimated scf accuracy    <       0.00052399 Ry

     iteration # 25     ecut=   100.00 Ry     beta= 0.70
     Davidson diagonalization with overlap
     ethr =  1.42E-06,  avg # of iterations =  1.6

     negative rho (up, down):  9.767E-04 0.000E+00

     total cpu time spent up to now is       60.0 secs

     total energy              =    -448.58593843 Ry
     estimated scf accuracy    <       0.00004370 Ry

     iteration # 26     ecut=   100.00 Ry     beta= 0.70
     Davidson diagonalization with overlap
     ethr =  1.56E-07,  avg # of iterations =  3.9

     negative rho (up, down):  9.731E-04 0.000E+00

     total cpu time spent up to now is       62.2 secs

     total energy              =    -448.58594825 Ry
     estimated scf accuracy    <       0.00005097 Ry

     iteration # 27     ecut=   100.00 Ry     beta= 0.70
     Davidson diagonalization with overlap
     ethr =  1.56E-07,  avg # of iterations =  1.1

     negative rho (up, down):  9.728E-04 0.000E+00

     total cpu time spent up to now is       64.1 secs

     total energy              =    -448.58595079 Ry
     estimated scf accuracy    <       0.00000108 Ry

     iteration # 28     ecut=   100.00 Ry     beta= 0.70
     Davidson diagonalization with overlap
     ethr =  3.85E-09,  avg # of iterations =  4.2

     negative rho (up, down):  9.728E-04 0.000E+00

     total cpu time spent up to now is       66.3 secs

     End of self-consistent calculation

          k = 0.0000 0.0000 0.0000 (  2945 PWs)   bands (ev):

   -69.2085 -39.1184 -35.2698 -35.2698 -35.2698 -15.2143 -15.2143 -15.2143
    10.1532  13.8672  13.8672  16.6596  16.6596  16.6596  19.0111  19.0111
    20.9601  20.9601

          k = 0.0000 0.0000 0.1000 (  2905 PWs)   bands (ev):

   -69.2082 -39.1159 -35.2728 -35.2693 -35.2693 -15.2496 -15.2122 -15.2122
    10.3621  13.9677  13.9750  16.6442  16.6442  16.7051  18.8836  19.0586
    20.6603  20.6603

          k = 0.0000 0.0000 0.2000 (  2886 PWs)   bands (ev):

   -69.2073 -39.1092 -35.2806 -35.2681 -35.2681 -15.3412 -15.2067 -15.2067
    10.9637  14.2452  14.2600  16.6109  16.6109  16.8305  18.5184  19.1562
    19.9924  19.9924

          k = 0.0000 0.0000 0.3000 (  2878 PWs)   bands (ev):

   -69.2062 -39.1009 -35.2903 -35.2666 -35.2666 -15.4528 -15.1999 -15.1999
    11.8815  14.5156  14.7123  16.5873  16.5873  17.0008  17.9718  19.1421
    19.3005  19.3005

          k = 0.0000 0.0000 0.4000 (  2890 PWs)   bands (ev):

   -69.2053 -39.0942 -35.2980 -35.2654 -35.2654 -15.5419 -15.1943 -15.1943
    12.9679  14.5186  15.2398  16.5883  16.5883  17.1548  17.3650  18.7967
    18.7967  18.8385

          k = 0.0000 0.0000-0.5000 (  2874 PWs)   bands (ev):

   -69.2050 -39.0917 -35.3010 -35.2649 -35.2649 -15.5756 -15.1922 -15.1922
    13.8517  14.0910  15.5492  16.5954  16.5954  17.0247  17.2186  18.6020
    18.6107  18.6107

          k = 0.0000 0.1000 0.1000 (  2897 PWs)   bands (ev):

   -69.2078 -39.1131 -35.2739 -35.2710 -35.2688 -15.2508 -15.2434 -15.2100
    10.5658  14.0615  14.0844  16.5454  16.6176  16.8170  18.8694  19.0239
    20.3431  20.3614

          k = 0.0000 0.1000 0.2000 (  2901 PWs)   bands (ev):

   -69.2070 -39.1059 -35.2813 -35.2711 -35.2676 -15.3380 -15.2402 -15.2042
    11.1510  14.3122  14.3777  16.4522  16.5548  16.9415  18.5983  19.1099
    19.7221  19.7872

          k = 0.0000 0.1000 0.3000 (  2886 PWs)   bands (ev):

   -69.2059 -39.0971 -35.2911 -35.2704 -35.2662 -15.4482 -15.2322 -15.1970
    12.0373  14.5821  14.7892  16.4113  16.4883  16.9997  18.1496  18.9318
    19.3039  19.3268

          k = 0.0000 0.1000 0.4000 (  2872 PWs)   bands (ev):

   -69.2050 -39.0899 -35.2991 -35.2698 -35.2650 -15.5361 -15.2258 -15.1911
    13.0730  14.5707  15.2638  16.4261  16.4340  16.9485  17.6905  18.4891
    19.0523  19.1731

          k = 0.0000 0.1000-0.5000 (  2890 PWs)   bands (ev):

   -69.2047 -39.0872 -35.3021 -35.2695 -35.2645 -15.5695 -15.2233 -15.1889
    13.8872  14.1697  15.5386  16.3629  16.4682  16.8873  17.4909  18.2968
    18.9941  19.0345

          k = 0.0000 0.2000 0.2000 (  2897 PWs)   bands (ev):

   -69.2061 -39.0975 -35.2847 -35.2772 -35.2665 -15.3379 -15.3187 -15.1976
    11.6810  14.4576  14.7149  16.2473  16.4375  16.9749  18.6927  19.0694
    19.1617  19.5096

          k = 0.0000 0.2000 0.3000 (  2888 PWs)   bands (ev):

   -69.2050 -39.0870 -35.2936 -35.2801 -35.2651 -15.4362 -15.3161 -15.1894
    12.4551  14.5841  15.1530  16.1167  16.3546  16.8038  18.5181  18.6543
    19.2403  19.4500

          k = 0.0000 0.2000 0.4000 (  2882 PWs)   bands (ev):

   -69.2042 -39.0785 -35.3019 -35.2812 -35.2639 -15.5211 -15.3074 -15.1828
    13.2982  14.5094  15.5473  16.1011  16.3939  16.5251  18.2066  18.3883
    19.3834  19.5785

          k = 0.0000 0.2000-0.5000 (  2890 PWs)   bands (ev):

   -69.2038 -39.0753 -35.3051 -35.2816 -35.2635 -15.5534 -15.3040 -15.1802
    13.8607  14.2425  15.7163  16.1630  16.3442  16.4709  18.1420  18.1922
    19.4152  19.6779

          k = 0.0000 0.3000 0.3000 (  2886 PWs)   bands (ev):

   -69.2040 -39.0745 -35.2982 -35.2905 -35.2637 -15.4294 -15.4104 -15.1800
    12.9891  14.4732  15.6951  15.8845  16.3993  16.4422  18.5206  18.8392
    19.1306  19.7650

          k = 0.0000 0.3000 0.4000 (  2902 PWs)   bands (ev):

   -69.2031 -39.0644 -35.3055 -35.2954 -35.2626 -15.5026 -15.4070 -15.1724
    13.4477  14.2812  15.7856  16.0916  16.1606  16.7681  18.3521  18.8594
    19.3430  20.1181

          k = 0.0000 0.3000-0.5000 (  2888 PWs)   bands (ev):

   -69.2028 -39.0605 -35.3089 -35.2966 -35.2622 -15.5335 -15.4025 -15.1695
    13.6622  14.1448  15.8272  15.8861  16.3140  17.1724  18.0906  18.8625
    19.5234  20.3183

          k = 0.0000 0.4000 0.4000 (  2878 PWs)   bands (ev):

   -69.2022 -39.0529 -35.3091 -35.3061 -35.2616 -15.4907 -15.4835 -15.1639
    13.4639  14.0818  15.5979  15.7583  16.8932  17.3513  18.5858  19.0578
    19.2682  20.5478

          k = 0.0000 0.4000-0.5000 (  2888 PWs)   bands (ev):

   -69.2019 -39.0485 -35.3120 -35.3086 -35.2612 -15.5173 -15.4813 -15.1607
    13.4499  14.0077  15.5801  15.5915  17.1833  18.0960  18.1439  19.1996
    19.3341  20.7682

          k = 0.0000-0.5000-0.5000 (  2864 PWs)   bands (ev):

   -69.2016 -39.0439 -35.3132 -35.3132 -35.2608 -15.5112 -15.5112 -15.1574
    13.3651  13.9513  15.4904  15.4904  17.7654  18.1971  18.7168  18.7168
    19.4579  20.9307

          k = 0.1000 0.1000 0.1000 (  2906 PWs)   bands (ev):

   -69.2075 -39.1102 -35.2734 -35.2734 -35.2696 -15.2511 -15.2412 -15.2412
    10.7654  14.1726  14.1726  16.5162  16.5162  16.8989  18.9342  18.9342
    19.8714  20.6344

          k = 0.1000 0.1000 0.2000 (  2895 PWs)   bands (ev):

   -69.2066 -39.1026 -35.2815 -35.2722 -35.2697 -15.3347 -15.2394 -15.2356
    11.3370  14.4268  14.4479  16.3884  16.4402  16.9561  18.6780  19.0684
    19.4060  19.9646

          k = 0.1000 0.1000 0.3000 (  2905 PWs)   bands (ev):

   -69.2056 -39.0932 -35.2918 -35.2706 -35.2695 -15.4437 -15.2300 -15.2286
    12.1967  14.7062  14.8115  16.3376  16.3381  16.8864  18.3033  18.9280
    19.2894  19.3772

          k = 0.1000 0.1000 0.4000 (  2876 PWs)   bands (ev):

   -69.2047 -39.0856 -35.3000 -35.2694 -35.2694 -15.5307 -15.2229 -15.2223
    13.1894  14.6627  15.2443  16.2078  16.4174  16.7665  17.9267  18.5947
    18.8169  19.5642

          k = 0.1000 0.1000-0.5000 (  2892 PWs)   bands (ev):

   -69.2044 -39.0827 -35.3031 -35.2693 -35.2689 -15.5637 -15.2207 -15.2194
    13.9493  14.2672  15.4941  16.0999  16.5427  16.6872  17.7572  18.3703
    18.6487  19.6888

          k = 0.1000 0.2000 0.2000 (  2888 PWs)   bands (ev):

   -69.2058 -39.0939 -35.2842 -35.2780 -35.2699 -15.3338 -15.3165 -15.2303
    11.8621  14.5874  14.7669  16.2009  16.3094  16.8244  18.7769  19.0441
    19.2045  19.6790

          k = 0.1000 0.2000 0.3000 (  2889 PWs)   bands (ev):

   -69.2047 -39.0832 -35.2936 -35.2801 -35.2691 -15.4321 -15.3131 -15.2216
    12.6247  14.7339  15.1556  16.0619  16.2162  16.5701  18.6393  18.8361
    19.2258  19.5767

          k = 0.1000 0.2000 0.4000 (  2885 PWs)   bands (ev):

   -69.2038 -39.0744 -35.3023 -35.2809 -35.2683 -15.5165 -15.3044 -15.2144
    13.4455  14.6574  15.4533  15.9832  16.2799  16.4361  18.4002  18.4744
    19.0333  20.0427

          k = 0.1000 0.2000-0.5000 (  2902 PWs)   bands (ev):

   -69.2035 -39.0711 -35.3057 -35.2812 -35.2680 -15.5486 -15.3010 -15.2116
    13.9844  14.3818  15.5814  15.9417  16.2959  16.5312  18.2041  18.3560
    18.8910  20.4137

          k = 0.1000 0.3000 0.3000 (  2889 PWs)   bands (ev):

   -69.2036 -39.0707 -35.2976 -35.2908 -35.2680 -15.4249 -15.4081 -15.2120
    13.1684  14.6236  15.6876  15.8415  16.2026  16.2540  18.6258  18.9933
    19.0883  19.9877

          k = 0.1000 0.3000 0.4000 (  2892 PWs)   bands (ev):

   -69.2028 -39.0605 -35.3053 -35.2950 -35.2671 -15.4990 -15.4042 -15.2042
    13.6191  14.4311  15.7342  15.8963  16.1730  16.6029  18.3888  18.9388
    19.1385  20.5291

          k = 0.1000 0.3000-0.5000 (  2880 PWs)   bands (ev):

   -69.2025 -39.0567 -35.3089 -35.2960 -35.2667 -15.5298 -15.3999 -15.2012
    13.8182  14.2996  15.7536  15.7672  16.2730  17.0257  18.1123  18.9943
    19.0306  20.7101

          k = 0.1000 0.4000 0.4000 (  2889 PWs)   bands (ev):

   -69.2019 -39.0492 -35.3084 -35.3058 -35.2660 -15.4875 -15.4812 -15.1959
    13.6332  14.2343  15.5661  15.6950  16.8192  17.1327  18.4670  18.8179
    19.3728  20.8231

          k = 0.1000 0.4000-0.5000 (  2892 PWs)   bands (ev):

   -69.2016 -39.0449 -35.3116 -35.3080 -35.2656 -15.5147 -15.4789 -15.1927
    13.6141  14.1625  15.5462  15.5534  17.0829  17.8059  18.0883  18.7798
    19.4429  20.9291

          k = 0.1000-0.5000-0.5000 (  2920 PWs)   bands (ev):

   -69.2013 -39.0404 -35.3126 -35.3126 -35.2652 -15.5089 -15.5089 -15.1895
    13.5310  14.1055  15.4650  15.4650  17.7691  18.1982  18.2057  18.2057
    19.5622  21.5828

          k = 0.2000 0.2000 0.2000 (  2860 PWs)   bands (ev):

   -69.2049 -39.0846 -35.2829 -35.2829 -35.2760 -15.3276 -15.3106 -15.3106
    12.3687  14.9112  14.9112  16.0809  16.0809  16.4314  18.9671  18.9671
    19.4622  19.9329

          k = 0.2000 0.2000 0.3000 (  2877 PWs)   bands (ev):

   -69.2038 -39.0731 -35.2939 -35.2812 -35.2786 -15.4213 -15.3070 -15.3032
    13.0843  15.1121  15.1617  15.9292  15.9532  16.1235  18.8452  18.9689
    19.3186  19.9275

          k = 0.2000 0.2000 0.4000 (  2891 PWs)   bands (ev):

   -69.2030 -39.0637 -35.3034 -35.2800 -35.2798 -15.5044 -15.2973 -15.2958
    13.8042  14.9412  15.3132  15.7851  16.0495  16.2665  18.5591  18.7089
    18.9273  20.4841

          k = 0.2000 0.2000-0.5000 (  2892 PWs)   bands (ev):

   -69.2027 -39.0601 -35.3071 -35.2805 -35.2793 -15.5360 -15.2951 -15.2915
    14.2313  14.6417  15.4189  15.7054  16.1281  16.4995  18.2214  18.6362
    18.8079  20.5936

          k = 0.2000 0.3000 0.3000 (  2892 PWs)   bands (ev):

   -69.2028 -39.0606 -35.2961 -35.2916 -35.2792 -15.4133 -15.4020 -15.2951
    13.6649  15.0191  15.6534  15.7399  15.7731  15.8883  18.7371  18.9282
    19.4201  20.1875

          k = 0.2000 0.3000 0.4000 (  2889 PWs)   bands (ev):

   -69.2019 -39.0504 -35.3049 -35.2942 -35.2786 -15.4895 -15.3969 -15.2868
    14.0909  14.7994  15.5838  15.6411  15.9954  16.2834  18.4331  18.6945
    19.4000  20.5241

          k = 0.2000 0.3000-0.5000 (  2886 PWs)   bands (ev):

   -69.2016 -39.0465 -35.3089 -35.2946 -35.2784 -15.5203 -15.3930 -15.2836
    14.2385  14.6711  15.5421  15.6097  16.0959  16.6867  18.1155  18.5991
    19.3715  20.6977

          k = 0.2000 0.4000 0.4000 (  2905 PWs)   bands (ev):

   -69.2011 -39.0396 -35.3068 -35.3051 -35.2776 -15.4793 -15.4751 -15.2789
    14.1111  14.6222  15.4919  15.5672  16.5811  16.5880  18.3639  18.4147
    19.7070  20.7843

          k = 0.2000 0.4000-0.5000 (  2902 PWs)   bands (ev):

   -69.2008 -39.0355 -35.3104 -35.3064 -35.2771 -15.5077 -15.4726 -15.2758
    14.0771  14.5600  15.4705  15.4746  16.7325  17.1358  18.0227  18.3745
    19.7736  20.9839

          k = 0.2000-0.5000-0.5000 (  2896 PWs)   bands (ev):

   -69.2005 -39.0313 -35.3109 -35.3109 -35.2767 -15.5028 -15.5028 -15.2729
    14.0021  14.5079  15.4088  15.4088  17.3553  17.3553  17.7789  18.1834
    19.8817  21.2327

          k = 0.3000 0.3000 0.3000 (  2896 PWs)   bands (ev):

   -69.2018 -39.0481 -35.2943 -35.2943 -35.2914 -15.4008 -15.3945 -15.3945
    14.3119  15.2848  15.5697  15.5697  15.6454  15.6454  18.6743  18.6743
    19.9781  19.9781

          k = 0.3000 0.3000 0.4000 (  2899 PWs)   bands (ev):

   -69.2009 -39.0379 -35.3047 -35.2931 -35.2928 -15.4778 -15.3885 -15.3870
    14.6597  15.0420  15.4876  15.5724  15.7253  16.0900  18.3378  18.4737
    19.9116  20.5340

          k = 0.3000 0.3000-0.5000 (  2912 PWs)   bands (ev):

   -69.2006 -39.0340 -35.3089 -35.2934 -35.2922 -15.5085 -15.3861 -15.3825
    14.6722  14.9572  15.4583  15.5394  15.8957  16.4316  18.0383  18.4038
    19.8976  20.7768

          k = 0.3000 0.4000 0.4000 (  2906 PWs)   bands (ev):

   -69.2001 -39.0277 -35.3049 -35.3041 -35.2918 -15.4692 -15.4676 -15.3802
    14.7735  15.0338  15.4277  15.5519  16.0101  16.2114  18.1570  18.2610
    20.2451  20.8076

          k = 0.3000 0.4000-0.5000 (  2918 PWs)   bands (ev):

   -69.1998 -39.0238 -35.3089 -35.3045 -35.2914 -15.4990 -15.4648 -15.3773
    14.7244  14.9992  15.4338  15.4493  16.2193  16.5016  17.9311  18.2044
    20.3030  21.0378

          k = 0.3000-0.5000-0.5000 (  2912 PWs)   bands (ev):

   -69.1994 -39.0199 -35.3089 -35.3089 -35.2908 -15.4953 -15.4953 -15.3747
    14.6886  14.9967  15.3723  15.3723  16.5973  16.5973  17.7910  18.1053
    20.4066  21.2581

          k = 0.4000 0.4000 0.4000 (  2917 PWs)   bands (ev):

   -69.1992 -39.0180 -35.3035 -35.3033 -35.3033 -15.4615 -15.4615 -15.4607
    15.0745  15.4323  15.4323  15.6552  15.8431  15.8431  18.0463  18.0463
    20.8390  20.8390

          k = 0.4000 0.4000-0.5000 (  2900 PWs)   bands (ev):

   -69.1989 -39.0143 -35.3077 -35.3031 -35.3027 -15.4920 -15.4592 -15.4578
    15.1916  15.2363  15.5118  15.6253  15.8266  16.1010  17.8750  18.0173
    20.8521  21.1225

          k = 0.4000-0.5000-0.5000 (  2900 PWs)   bands (ev):

   -69.1986 -39.0107 -35.3073 -35.3073 -35.3023 -15.4893 -15.4893 -15.4561
    15.3776  15.3967  15.4138  15.4138  16.0289  16.0289  17.8009  17.9325
    20.9987  21.2789

          k =-0.5000-0.5000-0.5000 (  2872 PWs)   bands (ev):

   -69.1983 -39.0072 -35.3066 -35.3066 -35.3066 -15.4870 -15.4870 -15.4870
    15.5180  15.5180  15.5180  15.7409  15.7409  15.7409  17.8046  17.8046
    21.2868  21.2868

     the Fermi energy is    17.7497 ev

!    total energy              =    -448.58595116 Ry
     estimated scf accuracy    <          3.1E-09 Ry
     smearing contrib. (-TS)   =      -0.00005097 Ry
     internal energy E=F+TS    =    -448.58590019 Ry

     The total energy is F=E-TS. E is the sum of the following terms:
     one-electron contribution =    -151.36258835 Ry
     hartree contribution      =      91.64173487 Ry
     xc contribution           =     -52.89081683 Ry
     ewald contribution        =    -259.82070277 Ry
     one-center paw contrib.   =     -76.15352712 Ry

     convergence has been achieved in  28 iterations

     negative rho (up, down):  9.728E-04 0.000E+00

     Forces acting on atoms (cartesian axes, Ry/au):

     atom    1 type  1   force =     0.00000000    0.00000000    0.00000000
     atom    2 type  2   force =     0.00000000    0.00000000    0.00000000

     Total force =     0.000000     Total SCF correction =     0.000000


     Computing stress (Cartesian axis) and pressure


     negative rho (up, down):  9.728E-04 0.000E+00
          total   stress  (Ry/bohr**3)                   (kbar)     P=       29.11
   0.00019789   0.00000000   0.00000000           29.11        0.00        0.00
   0.00000000   0.00019789   0.00000000            0.00       29.11        0.00
   0.00000000   0.00000000   0.00019789            0.00        0.00       29.11


     Writing all to output data dir ./out/TiFe7.save/ :
     XML data file, charge density, pseudopotentials, collected wavefunctions

     init_run     :      1.13s CPU      1.23s WALL (       1 calls)
     electrons    :     59.83s CPU     64.92s WALL (       1 calls)
     forces       :      0.40s CPU      0.45s WALL (       1 calls)
     stress       :      1.86s CPU      2.01s WALL (       1 calls)

     Called by init_run:
     wfcinit      :      0.65s CPU      0.68s WALL (       1 calls)
     potinit      :      0.14s CPU      0.16s WALL (       1 calls)
     hinit0       :      0.19s CPU      0.20s WALL (       1 calls)

     Called by electrons:
     c_bands      :     44.25s CPU     46.02s WALL (      28 calls)
     sum_band     :      8.22s CPU     10.00s WALL (      28 calls)
     v_of_rho     :      1.03s CPU      1.07s WALL (      29 calls)
     newd         :      3.51s CPU      4.82s WALL (      29 calls)
     PAW_pot      :      2.79s CPU      3.03s WALL (      29 calls)
     mix_rho      :      0.14s CPU      0.15s WALL (      28 calls)

     Called by c_bands:
     init_us_2    :      0.90s CPU      0.92s WALL (    3304 calls)
     cegterg      :     42.18s CPU     43.93s WALL (    1568 calls)

     Called by *egterg:
     cdiaghg      :      2.01s CPU      2.03s WALL (    6222 calls)
     h_psi        :     27.93s CPU     29.58s WALL (    6278 calls)
     s_psi        :      2.32s CPU      2.34s WALL (    6278 calls)
     g_psi        :      0.12s CPU      0.12s WALL (    4654 calls)

     Called by h_psi:
     h_psi:calbec :      3.30s CPU      3.47s WALL (    6278 calls)
     vloc_psi     :     21.99s CPU     23.43s WALL (    6278 calls)
     add_vuspsi   :      2.32s CPU      2.35s WALL (    6278 calls)

     General routines
     calbec       :      4.86s CPU      5.09s WALL (    8798 calls)
     fft          :      0.45s CPU      0.48s WALL (     400 calls)
     ffts         :      0.01s CPU      0.01s WALL (      57 calls)
     fftw         :     19.45s CPU     20.80s WALL (  182424 calls)
     interpolate  :      0.05s CPU      0.06s WALL (      29 calls)

     Parallel routines

     PWSCF        :   1m 3.43s CPU   1m 8.86s WALL


   This run was terminated on:   1: 6:27  30Oct2025            

=------------------------------------------------------------------------------=
   JOB DONE.
=------------------------------------------------------------------------------=
