
     Program PWSCF v.7.4.1 starts on 30Oct2025 at  1:18:46 

     This program is part of the open-source Quantum ESPRESSO suite
     for quantum simulation of materials; please cite
         "P. Giannozzi et al., J. Phys.:Condens. Matter 21 395502 (2009);
         "P. Giannozzi et al., J. Phys.:Condens. Matter 29 465901 (2017);
         "P. Giannozzi et al., J. Chem. Phys. 152 154105 (2020);
          URL http://www.quantum-espresso.org", 
     in publications or presentations arising from this work. More details at
     http://www.quantum-espresso.org/quote

     Parallel version (MPI), running on     4 processors

     MPI processes distributed on     1 nodes
     4114 MiB available memory on the printing compute node when the environment starts

     Reading input from TiFe14.in

     Current dimensions of program PWSCF are:
     Max number of different atomic species (ntypx) = 10
     Max number of k-points (npk) =  40000
     Max angular momentum in pseudopotentials (lmaxx) =  4
     file Fe.pbe-spn-kjpaw_psl.0.2.1.UPF: wavefunction(s)  3D renormalized

     IMPORTANT: XC functional enforced from input :
     Exchange-correlation= PBE
                           (   1   4   3   4   0   0   0)
     Any further DFT definition will be discarded
     Please, verify this is what you really want

     Message from routine setup:
     using ibrav=0 with symmetry is DISCOURAGED, use correct ibrav instead

     R & G space division:  proc/nbgrp/npool/nimage =       4
     Subspace diagonalization in iterative solution of the eigenvalue problem:
     a serial algorithm will be used


     Parallelization info
     --------------------
     sticks:   dense  smooth     PW     G-vecs:    dense   smooth      PW
     Min        1047     416    121                50691    12857    2006
     Max        1048     418    124                50692    12860    2007
     Sum        4189    1669    489               202765    51435    8025

     Using Slab Decomposition



     bravais-lattice index     =            0
     lattice parameter (alat)  =       5.5533  a.u.
     unit-cell volume          =     171.2590 (a.u.)^3
     number of atoms/cell      =            2
     number of atomic types    =            2
     number of electrons       =        28.00
     number of Kohn-Sham states=           18
     kinetic-energy cutoff     =     170.0000  Ry
     charge density cutoff     =    1700.0000  Ry
     scf convergence threshold =      1.0E-08
     mixing beta               =       0.7000
     number of iterations used =            8  plain     mixing
     Exchange-correlation= PBE
                           (   1   4   3   4   0   0   0)

     celldm(1)=   5.553300  celldm(2)=   0.000000  celldm(3)=   0.000000
     celldm(4)=   0.000000  celldm(5)=   0.000000  celldm(6)=   0.000000

     crystal axes: (cart. coord. in units of alat)
               a(1) = (   1.000000   0.000000   0.000000 )  
               a(2) = (   0.000000   1.000000   0.000000 )  
               a(3) = (   0.000000   0.000000   1.000000 )  

     reciprocal axes: (cart. coord. in units 2 pi/alat)
               b(1) = (  1.000000  0.000000  0.000000 )  
               b(2) = (  0.000000  1.000000  0.000000 )  
               b(3) = (  0.000000  0.000000  1.000000 )  


     PseudoPot. # 1 for Fe read from file:
     /home/rafi/QE/qe-7.4.1/pseudo/Fe.pbe-spn-kjpaw_psl.0.2.1.UPF
     MD5 check sum: e86618425769142926afa95317d90200
     Pseudo is Projector augmented-wave + core cor, Zval = 16.0
     Generated using "atomic" code by A. Dal Corso  v.5.0.99 svn rev. 10869
     Shape of augmentation charge: PSQ
     Using radial grid of 1191 points,  6 beta functions with: 
                l(1) =   0
                l(2) =   0
                l(3) =   1
                l(4) =   1
                l(5) =   2
                l(6) =   2
     Q(r) pseudized with 0 coefficients 


     PseudoPot. # 2 for Ti read from file:
     /home/rafi/QE/qe-7.4.1/pseudo/ti_pbe_v1.4.uspp.F.UPF
     MD5 check sum: 88a00a6731bd790ddea75d31a80cb452
     Pseudo is Ultrasoft + core correction, Zval = 12.0
     Generated by new atomic code, or converted to UPF format
     Using radial grid of  851 points,  6 beta functions with: 
                l(1) =   0
                l(2) =   0
                l(3) =   1
                l(4) =   1
                l(5) =   2
                l(6) =   2
     Q(r) pseudized with  6 coefficients,  rinner =    1.000   1.000   1.000
                                                       1.000   1.000

     atomic species   valence    mass     pseudopotential
     Fe               16.00    55.84500     Fe( 1.00)
     Ti               12.00    47.86700     Ti( 1.00)

     48 Sym. Ops., with inversion, found



   Cartesian axes

     site n.     atom                  positions (alat units)
         1        Fe     tau(   1) = (   0.5000000   0.5000000   0.5000000  )
         2        Ti     tau(   2) = (   0.0000000   0.0000000   0.0000000  )

     number of k points=    56  Marzari-Vanderbilt smearing, width (Ry)=  0.0050
                       cart. coord. in units 2pi/alat
        k(    1) = (   0.0000000   0.0000000   0.0000000), wk =   0.0020000
        k(    2) = (   0.0000000   0.0000000   0.1000000), wk =   0.0120000
        k(    3) = (   0.0000000   0.0000000   0.2000000), wk =   0.0120000
        k(    4) = (   0.0000000   0.0000000   0.3000000), wk =   0.0120000
        k(    5) = (   0.0000000   0.0000000   0.4000000), wk =   0.0120000
        k(    6) = (   0.0000000   0.0000000  -0.5000000), wk =   0.0060000
        k(    7) = (   0.0000000   0.1000000   0.1000000), wk =   0.0240000
        k(    8) = (   0.0000000   0.1000000   0.2000000), wk =   0.0480000
        k(    9) = (   0.0000000   0.1000000   0.3000000), wk =   0.0480000
        k(   10) = (   0.0000000   0.1000000   0.4000000), wk =   0.0480000
        k(   11) = (   0.0000000   0.1000000  -0.5000000), wk =   0.0240000
        k(   12) = (   0.0000000   0.2000000   0.2000000), wk =   0.0240000
        k(   13) = (   0.0000000   0.2000000   0.3000000), wk =   0.0480000
        k(   14) = (   0.0000000   0.2000000   0.4000000), wk =   0.0480000
        k(   15) = (   0.0000000   0.2000000  -0.5000000), wk =   0.0240000
        k(   16) = (   0.0000000   0.3000000   0.3000000), wk =   0.0240000
        k(   17) = (   0.0000000   0.3000000   0.4000000), wk =   0.0480000
        k(   18) = (   0.0000000   0.3000000  -0.5000000), wk =   0.0240000
        k(   19) = (   0.0000000   0.4000000   0.4000000), wk =   0.0240000
        k(   20) = (   0.0000000   0.4000000  -0.5000000), wk =   0.0240000
        k(   21) = (   0.0000000  -0.5000000  -0.5000000), wk =   0.0060000
        k(   22) = (   0.1000000   0.1000000   0.1000000), wk =   0.0160000
        k(   23) = (   0.1000000   0.1000000   0.2000000), wk =   0.0480000
        k(   24) = (   0.1000000   0.1000000   0.3000000), wk =   0.0480000
        k(   25) = (   0.1000000   0.1000000   0.4000000), wk =   0.0480000
        k(   26) = (   0.1000000   0.1000000  -0.5000000), wk =   0.0240000
        k(   27) = (   0.1000000   0.2000000   0.2000000), wk =   0.0480000
        k(   28) = (   0.1000000   0.2000000   0.3000000), wk =   0.0960000
        k(   29) = (   0.1000000   0.2000000   0.4000000), wk =   0.0960000
        k(   30) = (   0.1000000   0.2000000  -0.5000000), wk =   0.0480000
        k(   31) = (   0.1000000   0.3000000   0.3000000), wk =   0.0480000
        k(   32) = (   0.1000000   0.3000000   0.4000000), wk =   0.0960000
        k(   33) = (   0.1000000   0.3000000  -0.5000000), wk =   0.0480000
        k(   34) = (   0.1000000   0.4000000   0.4000000), wk =   0.0480000
        k(   35) = (   0.1000000   0.4000000  -0.5000000), wk =   0.0480000
        k(   36) = (   0.1000000  -0.5000000  -0.5000000), wk =   0.0120000
        k(   37) = (   0.2000000   0.2000000   0.2000000), wk =   0.0160000
        k(   38) = (   0.2000000   0.2000000   0.3000000), wk =   0.0480000
        k(   39) = (   0.2000000   0.2000000   0.4000000), wk =   0.0480000
        k(   40) = (   0.2000000   0.2000000  -0.5000000), wk =   0.0240000
        k(   41) = (   0.2000000   0.3000000   0.3000000), wk =   0.0480000
        k(   42) = (   0.2000000   0.3000000   0.4000000), wk =   0.0960000
        k(   43) = (   0.2000000   0.3000000  -0.5000000), wk =   0.0480000
        k(   44) = (   0.2000000   0.4000000   0.4000000), wk =   0.0480000
        k(   45) = (   0.2000000   0.4000000  -0.5000000), wk =   0.0480000
        k(   46) = (   0.2000000  -0.5000000  -0.5000000), wk =   0.0120000
        k(   47) = (   0.3000000   0.3000000   0.3000000), wk =   0.0160000
        k(   48) = (   0.3000000   0.3000000   0.4000000), wk =   0.0480000
        k(   49) = (   0.3000000   0.3000000  -0.5000000), wk =   0.0240000
        k(   50) = (   0.3000000   0.4000000   0.4000000), wk =   0.0480000
        k(   51) = (   0.3000000   0.4000000  -0.5000000), wk =   0.0480000
        k(   52) = (   0.3000000  -0.5000000  -0.5000000), wk =   0.0120000
        k(   53) = (   0.4000000   0.4000000   0.4000000), wk =   0.0160000
        k(   54) = (   0.4000000   0.4000000  -0.5000000), wk =   0.0240000
        k(   55) = (   0.4000000  -0.5000000  -0.5000000), wk =   0.0120000
        k(   56) = (  -0.5000000  -0.5000000  -0.5000000), wk =   0.0020000

     Dense  grid:   202765 G-vectors     FFT dimensions: (  75,  75,  75)

     Smooth grid:    51435 G-vectors     FFT dimensions: (  48,  48,  48)

     Estimated max dynamical RAM per process >     217.72 MB

     Estimated total dynamical RAM >     870.87 MB

     Check: negative core charge=   -0.000001

     Initial potential from superposition of free atoms

     starting charge      26.9995, renormalised to      28.0000

     negative rho (up, down):  1.361E-03 0.000E+00
     Starting wfcs are   23 randomized atomic wfcs
     Checking if some PAW data can be deallocated... 

     total cpu time spent up to now is        3.1 secs

     Self-consistent Calculation

     iteration #  1     ecut=   170.00 Ry     beta= 0.70
     Davidson diagonalization with overlap
     ethr =  1.00E-02,  avg # of iterations =  2.2

     negative rho (up, down):  8.869E-05 0.000E+00

     total cpu time spent up to now is        8.7 secs

     total energy              =    -434.85926989 Ry
     estimated scf accuracy    <      17.50119417 Ry

     iteration #  2     ecut=   170.00 Ry     beta= 0.70
     Davidson diagonalization with overlap
     ethr =  1.00E-02,  avg # of iterations =  6.2

     negative rho (up, down):  2.226E-05 0.000E+00

     total cpu time spent up to now is       18.1 secs

     WARNING: integrated charge=    28.00013146, expected=    28.00000000

     total energy              =    -448.50173871 Ry
     estimated scf accuracy    <      66.25367983 Ry

     iteration #  3     ecut=   170.00 Ry     beta= 0.70
     Davidson diagonalization with overlap
     ethr =  1.00E-02,  avg # of iterations =  3.2

     negative rho (up, down):  2.382E-04 0.000E+00

     total cpu time spent up to now is       25.1 secs

     WARNING: integrated charge=    28.00001844, expected=    28.00000000

     total energy              =    -448.59830627 Ry
     estimated scf accuracy    <      16.77831597 Ry

     iteration #  4     ecut=   170.00 Ry     beta= 0.70
     Davidson diagonalization with overlap
     ethr =  1.00E-02,  avg # of iterations =  2.2

     negative rho (up, down):  2.782E-04 0.000E+00

     total cpu time spent up to now is       30.8 secs

     WARNING: integrated charge=    28.00001964, expected=    28.00000000

     total energy              =    -449.10865822 Ry
     estimated scf accuracy    <       4.86291002 Ry

     iteration #  5     ecut=   170.00 Ry     beta= 0.70
     Davidson diagonalization with overlap
     ethr =  1.00E-02,  avg # of iterations =  1.0

     negative rho (up, down):  3.335E-04 0.000E+00

     total cpu time spent up to now is       35.5 secs

     WARNING: integrated charge=    28.00002398, expected=    28.00000000

     total energy              =    -449.10689208 Ry
     estimated scf accuracy    <       4.39865300 Ry

     iteration #  6     ecut=   170.00 Ry     beta= 0.70
     Davidson diagonalization with overlap
     ethr =  1.00E-02,  avg # of iterations =  1.0

     negative rho (up, down):  1.080E-03 0.000E+00

     total cpu time spent up to now is       40.3 secs

     total energy              =    -447.90861443 Ry
     estimated scf accuracy    <       4.57994053 Ry

     iteration #  7     ecut=   170.00 Ry     beta= 0.70
     Davidson diagonalization with overlap
     ethr =  1.00E-02,  avg # of iterations =  3.3

     negative rho (up, down):  1.046E-03 0.000E+00

     total cpu time spent up to now is       45.7 secs

     total energy              =    -448.68292082 Ry
     estimated scf accuracy    <       3.13119367 Ry

     iteration #  8     ecut=   170.00 Ry     beta= 0.70
     Davidson diagonalization with overlap
     ethr =  1.00E-02,  avg # of iterations =  1.1

     negative rho (up, down):  1.191E-03 0.000E+00

     total cpu time spent up to now is       50.3 secs

     WARNING: integrated charge=    27.99999626, expected=    28.00000000

     total energy              =    -448.73718828 Ry
     estimated scf accuracy    <       2.42270951 Ry

     iteration #  9     ecut=   170.00 Ry     beta= 0.70
     Davidson diagonalization with overlap
     ethr =  8.65E-03,  avg # of iterations =  1.0

     negative rho (up, down):  1.108E-03 0.000E+00

     total cpu time spent up to now is       54.9 secs

     WARNING: integrated charge=    28.00000990, expected=    28.00000000

     total energy              =    -448.45508022 Ry
     estimated scf accuracy    <       3.35390262 Ry

     iteration # 10     ecut=   170.00 Ry     beta= 0.70
     Davidson diagonalization with overlap
     ethr =  8.65E-03,  avg # of iterations =  1.0

     negative rho (up, down):  8.867E-04 0.000E+00

     total cpu time spent up to now is       59.4 secs

     WARNING: integrated charge=    28.00001153, expected=    28.00000000

     total energy              =    -448.56489321 Ry
     estimated scf accuracy    <       0.12561374 Ry

     iteration # 11     ecut=   170.00 Ry     beta= 0.70
     Davidson diagonalization with overlap
     ethr =  4.49E-04,  avg # of iterations =  3.5

     negative rho (up, down):  8.579E-04 0.000E+00

     total cpu time spent up to now is       64.8 secs

     total energy              =    -448.57947422 Ry
     estimated scf accuracy    <       0.08511541 Ry

     iteration # 12     ecut=   170.00 Ry     beta= 0.70
     Davidson diagonalization with overlap
     ethr =  3.04E-04,  avg # of iterations =  6.5

     negative rho (up, down):  9.524E-04 0.000E+00

     total cpu time spent up to now is       72.5 secs

     WARNING: integrated charge=    28.00000757, expected=    28.00000000

     total energy              =    -447.81652503 Ry
     estimated scf accuracy    <       9.11048630 Ry

     iteration # 13     ecut=   170.00 Ry     beta= 0.70
     Davidson diagonalization with overlap
     ethr =  3.04E-04,  avg # of iterations =  5.8

     negative rho (up, down):  4.392E-04 0.000E+00

     total cpu time spent up to now is       80.3 secs

     WARNING: integrated charge=    28.00001007, expected=    28.00000000

     total energy              =    -448.88733389 Ry
     estimated scf accuracy    <       0.53025386 Ry

     iteration # 14     ecut=   170.00 Ry     beta= 0.70
     Davidson diagonalization with overlap
     ethr =  3.04E-04,  avg # of iterations =  4.8

     negative rho (up, down):  3.693E-04 0.000E+00

     total cpu time spent up to now is       87.5 secs

     total energy              =    -448.56177151 Ry
     estimated scf accuracy    <       2.70007504 Ry

     iteration # 15     ecut=   170.00 Ry     beta= 0.70
     Davidson diagonalization with overlap
     ethr =  3.04E-04,  avg # of iterations =  4.6

     negative rho (up, down):  4.367E-04 0.000E+00

     total cpu time spent up to now is       94.5 secs

     total energy              =    -448.63398699 Ry
     estimated scf accuracy    <       0.77794356 Ry

     iteration # 16     ecut=   170.00 Ry     beta= 0.70
     Davidson diagonalization with overlap
     ethr =  3.04E-04,  avg # of iterations =  1.0

     negative rho (up, down):  7.253E-04 0.000E+00

     total cpu time spent up to now is       99.2 secs

     total energy              =    -448.62299341 Ry
     estimated scf accuracy    <       0.68415471 Ry

     iteration # 17     ecut=   170.00 Ry     beta= 0.70
     Davidson diagonalization with overlap
     ethr =  3.04E-04,  avg # of iterations =  1.4

     negative rho (up, down):  4.850E-04 0.000E+00

     total cpu time spent up to now is      104.0 secs

     WARNING: integrated charge=    28.00000281, expected=    28.00000000

     total energy              =    -448.65264745 Ry
     estimated scf accuracy    <       0.46146009 Ry

     iteration # 18     ecut=   170.00 Ry     beta= 0.70
     Davidson diagonalization with overlap
     ethr =  3.04E-04,  avg # of iterations =  1.2

     negative rho (up, down):  2.631E-04 0.000E+00

     total cpu time spent up to now is      108.6 secs

     WARNING: integrated charge=    28.00000828, expected=    28.00000000

     total energy              =    -448.79857358 Ry
     estimated scf accuracy    <       0.61712840 Ry

     iteration # 19     ecut=   170.00 Ry     beta= 0.70
     Davidson diagonalization with overlap
     ethr =  3.04E-04,  avg # of iterations =  3.4

     negative rho (up, down):  6.383E-04 0.000E+00

     total cpu time spent up to now is      114.4 secs

     total energy              =    -448.56944942 Ry
     estimated scf accuracy    <       2.11343524 Ry

     iteration # 20     ecut=   170.00 Ry     beta= 0.70
     Davidson diagonalization with overlap
     ethr =  3.04E-04,  avg # of iterations =  3.8

     negative rho (up, down):  7.848E-04 0.000E+00

     total cpu time spent up to now is      120.8 secs

     total energy              =    -448.57947653 Ry
     estimated scf accuracy    <       0.44021723 Ry

     iteration # 21     ecut=   170.00 Ry     beta= 0.70
     Davidson diagonalization with overlap
     ethr =  3.04E-04,  avg # of iterations =  2.1

     negative rho (up, down):  1.287E-03 0.000E+00

     total cpu time spent up to now is      126.0 secs

     total energy              =    -448.55379237 Ry
     estimated scf accuracy    <       0.08440195 Ry

     iteration # 22     ecut=   170.00 Ry     beta= 0.70
     Davidson diagonalization with overlap
     ethr =  3.01E-04,  avg # of iterations =  4.5

     negative rho (up, down):  8.784E-04 0.000E+00

     total cpu time spent up to now is      132.8 secs

     total energy              =    -448.50119728 Ry
     estimated scf accuracy    <       1.46741269 Ry

     iteration # 23     ecut=   170.00 Ry     beta= 0.70
     Davidson diagonalization with overlap
     ethr =  3.01E-04,  avg # of iterations =  4.1

     negative rho (up, down):  4.317E-04 0.000E+00

     total cpu time spent up to now is      139.0 secs

     total energy              =    -448.60042240 Ry
     estimated scf accuracy    <       0.00114957 Ry

     iteration # 24     ecut=   170.00 Ry     beta= 0.70
     Davidson diagonalization with overlap
     ethr =  4.11E-06,  avg # of iterations =  8.5

     negative rho (up, down):  6.069E-04 0.000E+00

     total cpu time spent up to now is      150.4 secs

     total energy              =    -448.60053439 Ry
     estimated scf accuracy    <       0.84055340 Ry

     iteration # 25     ecut=   170.00 Ry     beta= 0.70
     Davidson diagonalization with overlap
     ethr =  4.11E-06,  avg # of iterations =  6.0

     negative rho (up, down):  3.754E-04 0.000E+00

     total cpu time spent up to now is      159.2 secs

     total energy              =    -448.67141221 Ry
     estimated scf accuracy    <       0.29411235 Ry

     iteration # 26     ecut=   170.00 Ry     beta= 0.70
     Davidson diagonalization with overlap
     ethr =  4.11E-06,  avg # of iterations =  6.5

     negative rho (up, down):  4.846E-04 0.000E+00

     total cpu time spent up to now is      168.4 secs

     total energy              =    -448.64186627 Ry
     estimated scf accuracy    <       0.96943803 Ry

     iteration # 27     ecut=   170.00 Ry     beta= 0.70
     Davidson diagonalization with overlap
     ethr =  4.11E-06,  avg # of iterations =  5.1

     negative rho (up, down):  9.161E-04 0.000E+00

     total cpu time spent up to now is      176.1 secs

     total energy              =    -448.55077268 Ry
     estimated scf accuracy    <       0.60688219 Ry

     iteration # 28     ecut=   170.00 Ry     beta= 0.70
     Davidson diagonalization with overlap
     ethr =  4.11E-06,  avg # of iterations =  7.5

     negative rho (up, down):  9.797E-04 0.000E+00

     total cpu time spent up to now is      186.6 secs

     total energy              =    -448.58646574 Ry
     estimated scf accuracy    <       0.00163010 Ry

     iteration # 29     ecut=   170.00 Ry     beta= 0.70
     Davidson diagonalization with overlap
     ethr =  4.11E-06,  avg # of iterations =  4.1

     negative rho (up, down):  9.407E-04 0.000E+00

     total cpu time spent up to now is      192.8 secs

     total energy              =    -448.58569121 Ry
     estimated scf accuracy    <       0.00579285 Ry

     iteration # 30     ecut=   170.00 Ry     beta= 0.70
     Davidson diagonalization with overlap
     ethr =  4.11E-06,  avg # of iterations =  4.6

     negative rho (up, down):  9.717E-04 0.000E+00

     total cpu time spent up to now is      199.3 secs

     total energy              =    -448.58612962 Ry
     estimated scf accuracy    <       0.00884513 Ry

     iteration # 31     ecut=   170.00 Ry     beta= 0.70
     Davidson diagonalization with overlap
     ethr =  4.11E-06,  avg # of iterations =  3.6

     negative rho (up, down):  9.556E-04 0.000E+00

     total cpu time spent up to now is      204.8 secs

     total energy              =    -448.58672574 Ry
     estimated scf accuracy    <       0.00020181 Ry

     iteration # 32     ecut=   170.00 Ry     beta= 0.70
     Davidson diagonalization with overlap
     ethr =  7.21E-07,  avg # of iterations =  3.3

     negative rho (up, down):  9.641E-04 0.000E+00

     total cpu time spent up to now is      210.0 secs

     total energy              =    -448.58674363 Ry
     estimated scf accuracy    <       0.00036863 Ry

     iteration # 33     ecut=   170.00 Ry     beta= 0.70
     Davidson diagonalization with overlap
     ethr =  7.21E-07,  avg # of iterations =  1.8

     negative rho (up, down):  9.654E-04 0.000E+00

     total cpu time spent up to now is      215.0 secs

     total energy              =    -448.58676993 Ry
     estimated scf accuracy    <       0.00000081 Ry

     iteration # 34     ecut=   170.00 Ry     beta= 0.70
     Davidson diagonalization with overlap
     ethr =  2.88E-09,  avg # of iterations =  5.7

     negative rho (up, down):  9.635E-04 0.000E+00

     total cpu time spent up to now is      222.3 secs

     total energy              =    -448.58676917 Ry
     estimated scf accuracy    <       0.00003838 Ry

     iteration # 35     ecut=   170.00 Ry     beta= 0.70
     Davidson diagonalization with overlap
     ethr =  2.88E-09,  avg # of iterations =  4.8

     negative rho (up, down):  9.622E-04 0.000E+00

     total cpu time spent up to now is      228.7 secs

     total energy              =    -448.58677029 Ry
     estimated scf accuracy    <       0.00000100 Ry

     iteration # 36     ecut=   170.00 Ry     beta= 0.70
     Davidson diagonalization with overlap
     ethr =  2.88E-09,  avg # of iterations =  4.0

     negative rho (up, down):  9.631E-04 0.000E+00

     total cpu time spent up to now is      234.9 secs

     total energy              =    -448.58677037 Ry
     estimated scf accuracy    <       0.00000201 Ry

     iteration # 37     ecut=   170.00 Ry     beta= 0.70
     Davidson diagonalization with overlap
     ethr =  2.88E-09,  avg # of iterations =  3.6

     negative rho (up, down):  9.631E-04 0.000E+00

     total cpu time spent up to now is      240.3 secs

     total energy              =    -448.58677063 Ry
     estimated scf accuracy    <       0.00000037 Ry

     iteration # 38     ecut=   170.00 Ry     beta= 0.70
     Davidson diagonalization with overlap
     ethr =  1.31E-09,  avg # of iterations =  1.0

     negative rho (up, down):  9.631E-04 0.000E+00

     total cpu time spent up to now is      244.8 secs

     total energy              =    -448.58677062 Ry
     estimated scf accuracy    <       0.00000029 Ry

     iteration # 39     ecut=   170.00 Ry     beta= 0.70
     Davidson diagonalization with overlap
     ethr =  1.03E-09,  avg # of iterations =  1.1

     negative rho (up, down):  9.631E-04 0.000E+00

     total cpu time spent up to now is      249.5 secs

     total energy              =    -448.58677062 Ry
     estimated scf accuracy    <       0.00000018 Ry

     iteration # 40     ecut=   170.00 Ry     beta= 0.70
     Davidson diagonalization with overlap
     ethr =  6.45E-10,  avg # of iterations =  1.0

     negative rho (up, down):  9.630E-04 0.000E+00

     total cpu time spent up to now is      254.1 secs

     total energy              =    -448.58677061 Ry
     estimated scf accuracy    <       0.00000015 Ry

     iteration # 41     ecut=   170.00 Ry     beta= 0.70
     Davidson diagonalization with overlap
     ethr =  5.24E-10,  avg # of iterations =  1.0

     negative rho (up, down):  9.630E-04 0.000E+00

     total cpu time spent up to now is      258.6 secs

     total energy              =    -448.58677061 Ry
     estimated scf accuracy    <       0.00000006 Ry

     iteration # 42     ecut=   170.00 Ry     beta= 0.70
     Davidson diagonalization with overlap
     ethr =  2.21E-10,  avg # of iterations =  1.0

     negative rho (up, down):  9.629E-04 0.000E+00

     total cpu time spent up to now is      263.2 secs

     total energy              =    -448.58677061 Ry
     estimated scf accuracy    <       0.00000006 Ry

     iteration # 43     ecut=   170.00 Ry     beta= 0.70
     Davidson diagonalization with overlap
     ethr =  1.98E-10,  avg # of iterations =  1.8

     negative rho (up, down):  9.630E-04 0.000E+00

     total cpu time spent up to now is      268.1 secs

     End of self-consistent calculation

          k = 0.0000 0.0000 0.0000 (  6403 PWs)   bands (ev):

   -69.2093 -39.1183 -35.2714 -35.2714 -35.2714 -15.2144 -15.2144 -15.2144
    10.1528  13.8671  13.8671  16.6594  16.6594  16.6594  19.0111  19.0111
    20.9600  20.9600

          k = 0.0000 0.0000 0.1000 (  6427 PWs)   bands (ev):

   -69.2090 -39.1157 -35.2744 -35.2709 -35.2709 -15.2496 -15.2122 -15.2122
    10.3616  13.9676  13.9749  16.6440  16.6440  16.7049  18.8836  19.0585
    20.6601  20.6601

          k = 0.0000 0.0000 0.2000 (  6403 PWs)   bands (ev):

   -69.2081 -39.1090 -35.2822 -35.2697 -35.2697 -15.3412 -15.2067 -15.2067
    10.9632  14.2450  14.2599  16.6107  16.6107  16.8303  18.5183  19.1561
    19.9921  19.9921

          k = 0.0000 0.0000 0.3000 (  6427 PWs)   bands (ev):

   -69.2070 -39.1008 -35.2919 -35.2682 -35.2682 -15.4528 -15.1999 -15.1999
    11.8808  14.5152  14.7122  16.5871  16.5871  17.0006  17.9718  19.1419
    19.3001  19.3001

          k = 0.0000 0.0000 0.4000 (  6443 PWs)   bands (ev):

   -69.2062 -39.0941 -35.2996 -35.2670 -35.2670 -15.5419 -15.1943 -15.1943
    12.9672  14.5180  15.2397  16.5880  16.5880  17.1546  17.3649  18.7963
    18.7963  18.8383

          k = 0.0000 0.0000-0.5000 (  6432 PWs)   bands (ev):

   -69.2058 -39.0916 -35.3026 -35.2665 -35.2665 -15.5756 -15.1922 -15.1922
    13.8513  14.0899  15.5490  16.5952  16.5952  17.0246  17.2184  18.6018
    18.6102  18.6102

          k = 0.0000 0.1000 0.1000 (  6431 PWs)   bands (ev):

   -69.2086 -39.1130 -35.2755 -35.2726 -35.2704 -15.2508 -15.2434 -15.2100
    10.5654  14.0614  14.0842  16.5452  16.6174  16.8168  18.8693  19.0238
    20.3428  20.3611

          k = 0.0000 0.1000 0.2000 (  6416 PWs)   bands (ev):

   -69.2078 -39.1058 -35.2829 -35.2727 -35.2692 -15.3380 -15.2402 -15.2042
    11.1505  14.3121  14.3775  16.4520  16.5546  16.9412  18.5982  19.1098
    19.7217  19.7869

          k = 0.0000 0.1000 0.3000 (  6428 PWs)   bands (ev):

   -69.2067 -39.0969 -35.2927 -35.2720 -35.2678 -15.4482 -15.2322 -15.1970
    12.0366  14.5817  14.7890  16.4110  16.4880  16.9995  18.1496  18.9315
    19.3035  19.3265

          k = 0.0000 0.1000 0.4000 (  6431 PWs)   bands (ev):

   -69.2058 -39.0898 -35.3007 -35.2714 -35.2666 -15.5362 -15.2258 -15.1911
    13.0723  14.5701  15.2636  16.4258  16.4338  16.9483  17.6904  18.4888
    19.0519  19.1728

          k = 0.0000 0.1000-0.5000 (  6422 PWs)   bands (ev):

   -69.2055 -39.0871 -35.3037 -35.2711 -35.2661 -15.5695 -15.2233 -15.1889
    13.8868  14.1686  15.5385  16.3626  16.4679  16.8871  17.4908  18.2965
    18.9937  19.0340

          k = 0.0000 0.2000 0.2000 (  6430 PWs)   bands (ev):

   -69.2069 -39.0973 -35.2863 -35.2788 -35.2681 -15.3379 -15.3187 -15.1976
    11.6804  14.4574  14.7146  16.2471  16.4372  16.9746  18.6926  19.0693
    19.1613  19.5092

          k = 0.0000 0.2000 0.3000 (  6418 PWs)   bands (ev):

   -69.2058 -39.0869 -35.2952 -35.2817 -35.2667 -15.4362 -15.3161 -15.1894
    12.4545  14.5839  15.1527  16.1165  16.3543  16.8035  18.5180  18.6539
    19.2401  19.4497

          k = 0.0000 0.2000 0.4000 (  6408 PWs)   bands (ev):

   -69.2050 -39.0784 -35.3035 -35.2828 -35.2655 -15.5211 -15.3074 -15.1828
    13.2976  14.5089  15.5470  16.1009  16.3934  16.5248  18.2064  18.3881
    19.3829  19.5782

          k = 0.0000 0.2000-0.5000 (  6388 PWs)   bands (ev):

   -69.2046 -39.0752 -35.3067 -35.2832 -35.2651 -15.5534 -15.3040 -15.1802
    13.8604  14.2417  15.7160  16.1627  16.3439  16.4703  18.1419  18.1921
    19.4145  19.6775

          k = 0.0000 0.3000 0.3000 (  6406 PWs)   bands (ev):

   -69.2048 -39.0744 -35.2998 -35.2921 -35.2653 -15.4294 -15.4104 -15.1800
    12.9885  14.4729  15.6946  15.8843  16.3989  16.4420  18.5202  18.8391
    19.1304  19.7647

          k = 0.0000 0.3000 0.4000 (  6400 PWs)   bands (ev):

   -69.2039 -39.0643 -35.3071 -35.2969 -35.2642 -15.5026 -15.4070 -15.1724
    13.4473  14.2809  15.7854  16.0914  16.1601  16.7673  18.3517  18.8593
    19.3425  20.1178

          k = 0.0000 0.3000-0.5000 (  6398 PWs)   bands (ev):

   -69.2036 -39.0604 -35.3105 -35.2981 -35.2638 -15.5335 -15.4025 -15.1695
    13.6619  14.1443  15.8269  15.8859  16.3135  17.1713  18.0905  18.8624
    19.5225  20.3181

          k = 0.0000 0.4000 0.4000 (  6390 PWs)   bands (ev):

   -69.2031 -39.0528 -35.3106 -35.3077 -35.2632 -15.4907 -15.4835 -15.1640
    13.4636  14.0815  15.5977  15.7581  16.8927  17.3504  18.5852  19.0570
    19.2680  20.5476

          k = 0.0000 0.4000-0.5000 (  6380 PWs)   bands (ev):

   -69.2027 -39.0484 -35.3136 -35.3102 -35.2628 -15.5173 -15.4813 -15.1607
    13.4497  14.0074  15.5799  15.5913  17.1828  18.0958  18.1424  19.1983
    19.3339  20.7681

          k = 0.0000-0.5000-0.5000 (  6416 PWs)   bands (ev):

   -69.2024 -39.0438 -35.3148 -35.3148 -35.2624 -15.5112 -15.5112 -15.1574
    13.3648  13.9510  15.4902  15.4902  17.7653  18.1970  18.7149  18.7149
    19.4578  20.9305

          k = 0.1000 0.1000 0.1000 (  6406 PWs)   bands (ev):

   -69.2083 -39.1101 -35.2750 -35.2750 -35.2712 -15.2511 -15.2412 -15.2412
    10.7649  14.1724  14.1724  16.5160  16.5160  16.8987  18.9341  18.9341
    19.8710  20.6342

          k = 0.1000 0.1000 0.2000 (  6412 PWs)   bands (ev):

   -69.2074 -39.1025 -35.2831 -35.2738 -35.2713 -15.3347 -15.2394 -15.2356
    11.3364  14.4267  14.4476  16.3881  16.4400  16.9559  18.6780  19.0683
    19.4056  19.9643

          k = 0.1000 0.1000 0.3000 (  6420 PWs)   bands (ev):

   -69.2064 -39.0931 -35.2933 -35.2722 -35.2711 -15.4437 -15.2300 -15.2286
    12.1960  14.7058  14.8113  16.3374  16.3379  16.8861  18.3032  18.9277
    19.2889  19.3769

          k = 0.1000 0.1000 0.4000 (  6415 PWs)   bands (ev):

   -69.2055 -39.0855 -35.3016 -35.2710 -35.2710 -15.5307 -15.2229 -15.2223
    13.1887  14.6620  15.2441  16.2076  16.4171  16.7663  17.9266  18.5945
    18.8165  19.5638

          k = 0.1000 0.1000-0.5000 (  6400 PWs)   bands (ev):

   -69.2052 -39.0826 -35.3047 -35.2709 -35.2705 -15.5637 -15.2208 -15.2194
    13.9489  14.2662  15.4939  16.0997  16.5423  16.6869  17.7571  18.3702
    18.6483  19.6883

          k = 0.1000 0.2000 0.2000 (  6418 PWs)   bands (ev):

   -69.2066 -39.0938 -35.2858 -35.2796 -35.2715 -15.3338 -15.3165 -15.2303
    11.8614  14.5872  14.7666  16.2007  16.3092  16.8241  18.7768  19.0440
    19.2041  19.6787

          k = 0.1000 0.2000 0.3000 (  6424 PWs)   bands (ev):

   -69.2055 -39.0830 -35.2952 -35.2817 -35.2707 -15.4321 -15.3131 -15.2216
    12.6241  14.7336  15.1552  16.0617  16.2159  16.5699  18.6392  18.8358
    19.2255  19.5764

          k = 0.1000 0.2000 0.4000 (  6416 PWs)   bands (ev):

   -69.2047 -39.0743 -35.3039 -35.2825 -35.2699 -15.5165 -15.3044 -15.2144
    13.4448  14.6569  15.4530  15.9830  16.2796  16.4357  18.4000  18.4743
    19.0329  20.0423

          k = 0.1000 0.2000-0.5000 (  6406 PWs)   bands (ev):

   -69.2043 -39.0710 -35.3073 -35.2828 -35.2696 -15.5486 -15.3010 -15.2116
    13.9840  14.3810  15.5811  15.9415  16.2956  16.5306  18.2040  18.3558
    18.8906  20.4132

          k = 0.1000 0.3000 0.3000 (  6419 PWs)   bands (ev):

   -69.2045 -39.0705 -35.2992 -35.2924 -35.2696 -15.4249 -15.4081 -15.2120
    13.1678  14.6233  15.6871  15.8413  16.2023  16.2537  18.6254  18.9931
    19.0879  19.9873

          k = 0.1000 0.3000 0.4000 (  6403 PWs)   bands (ev):

   -69.2036 -39.0604 -35.3069 -35.2966 -35.2687 -15.4990 -15.4042 -15.2042
    13.6187  14.4308  15.7339  15.8960  16.1726  16.6021  18.3885  18.9386
    19.1381  20.5287

          k = 0.1000 0.3000-0.5000 (  6426 PWs)   bands (ev):

   -69.2033 -39.0565 -35.3105 -35.2976 -35.2683 -15.5299 -15.3999 -15.2012
    13.8179  14.2992  15.7534  15.7669  16.2725  17.0246  18.1122  18.9942
    19.0300  20.7100

          k = 0.1000 0.4000 0.4000 (  6396 PWs)   bands (ev):

   -69.2028 -39.0491 -35.3100 -35.3074 -35.2676 -15.4876 -15.4812 -15.1959
    13.6328  14.2340  15.5659  15.6948  16.8186  17.1318  18.4666  18.8172
    19.3726  20.8229

          k = 0.1000 0.4000-0.5000 (  6394 PWs)   bands (ev):

   -69.2024 -39.0448 -35.3131 -35.3096 -35.2672 -15.5147 -15.4789 -15.1927
    13.6138  14.1623  15.5460  15.5532  17.0823  17.8045  18.0881  18.7790
    19.4428  20.9289

          k = 0.1000-0.5000-0.5000 (  6384 PWs)   bands (ev):

   -69.2021 -39.0403 -35.3142 -35.3142 -35.2668 -15.5089 -15.5089 -15.1895
    13.5307  14.1052  15.4648  15.4648  17.7690  18.1981  18.2041  18.2041
    19.5621  21.5823

          k = 0.2000 0.2000 0.2000 (  6424 PWs)   bands (ev):

   -69.2057 -39.0845 -35.2845 -35.2845 -35.2776 -15.3276 -15.3106 -15.3106
    12.3680  14.9109  14.9109  16.0806  16.0806  16.4312  18.9669  18.9669
    19.4618  19.9325

          k = 0.2000 0.2000 0.3000 (  6443 PWs)   bands (ev):

   -69.2047 -39.0729 -35.2955 -35.2828 -35.2802 -15.4213 -15.3070 -15.3033
    13.0836  15.1118  15.1612  15.9290  15.9530  16.1232  18.8450  18.9687
    19.3183  19.9270

          k = 0.2000 0.2000 0.4000 (  6394 PWs)   bands (ev):

   -69.2038 -39.0636 -35.3050 -35.2816 -35.2814 -15.5044 -15.2973 -15.2958
    13.8035  14.9408  15.3128  15.7849  16.0492  16.2661  18.5588  18.7086
    18.9271  20.4839

          k = 0.2000 0.2000-0.5000 (  6394 PWs)   bands (ev):

   -69.2035 -39.0600 -35.3087 -35.2821 -35.2809 -15.5360 -15.2951 -15.2915
    14.2308  14.6411  15.4186  15.7052  16.1278  16.4987  18.2213  18.6359
    18.8078  20.5934

          k = 0.2000 0.3000 0.3000 (  6409 PWs)   bands (ev):

   -69.2036 -39.0604 -35.2977 -35.2932 -35.2808 -15.4133 -15.4021 -15.2951
    13.6642  15.0187  15.6529  15.7397  15.7728  15.8880  18.7368  18.9279
    19.4199  20.1873

          k = 0.2000 0.3000 0.4000 (  6396 PWs)   bands (ev):

   -69.2028 -39.0503 -35.3065 -35.2958 -35.2802 -15.4895 -15.3969 -15.2868
    14.0904  14.7991  15.5834  15.6408  15.9949  16.2827  18.4328  18.6941
    19.3998  20.5239

          k = 0.2000 0.3000-0.5000 (  6398 PWs)   bands (ev):

   -69.2024 -39.0464 -35.3105 -35.2962 -35.2800 -15.5203 -15.3930 -15.2836
    14.2381  14.6707  15.5417  15.6095  16.0955  16.6857  18.1154  18.5988
    19.3714  20.6975

          k = 0.2000 0.4000 0.4000 (  6409 PWs)   bands (ev):

   -69.2019 -39.0395 -35.3084 -35.3066 -35.2792 -15.4794 -15.4751 -15.2789
    14.1106  14.6219  15.4917  15.5669  16.5804  16.5871  18.3636  18.4143
    19.7069  20.7841

          k = 0.2000 0.4000-0.5000 (  6398 PWs)   bands (ev):

   -69.2016 -39.0354 -35.3120 -35.3080 -35.2787 -15.5077 -15.4726 -15.2758
    14.0767  14.5597  15.4702  15.4744  16.7317  17.1346  18.0225  18.3741
    19.7735  20.9838

          k = 0.2000-0.5000-0.5000 (  6400 PWs)   bands (ev):

   -69.2013 -39.0311 -35.3125 -35.3125 -35.2783 -15.5028 -15.5028 -15.2729
    14.0017  14.5077  15.4085  15.4085  17.3541  17.3541  17.7788  18.1833
    19.8816  21.2325

          k = 0.3000 0.3000 0.3000 (  6397 PWs)   bands (ev):

   -69.2026 -39.0479 -35.2959 -35.2959 -35.2930 -15.4009 -15.3945 -15.3945
    14.3111  15.2845  15.5692  15.5692  15.6451  15.6451  18.6740  18.6740
    19.9780  19.9780

          k = 0.3000 0.3000 0.4000 (  6401 PWs)   bands (ev):

   -69.2017 -39.0378 -35.3062 -35.2947 -35.2944 -15.4778 -15.3885 -15.3870
    14.6591  15.0418  15.4870  15.5721  15.7249  16.0893  18.3375  18.4734
    19.9115  20.5338

          k = 0.3000 0.3000-0.5000 (  6378 PWs)   bands (ev):

   -69.2014 -39.0339 -35.3105 -35.2950 -35.2938 -15.5085 -15.3861 -15.3825
    14.6717  14.9569  15.4578  15.5391  15.8953  16.4305  18.0382  18.4035
    19.8975  20.7766

          k = 0.3000 0.4000 0.4000 (  6397 PWs)   bands (ev):

   -69.2009 -39.0276 -35.3065 -35.3057 -35.2934 -15.4692 -15.4676 -15.3802
    14.7730  15.0336  15.4274  15.5515  16.0092  16.2107  18.1567  18.2608
    20.2449  20.8075

          k = 0.3000 0.4000-0.5000 (  6408 PWs)   bands (ev):

   -69.2006 -39.0237 -35.3105 -35.3061 -35.2930 -15.4990 -15.4648 -15.3773
    14.7238  14.9989  15.4334  15.4490  16.2185  16.5005  17.9309  18.2042
    20.3028  21.0376

          k = 0.3000-0.5000-0.5000 (  6416 PWs)   bands (ev):

   -69.2002 -39.0198 -35.3105 -35.3105 -35.2924 -15.4953 -15.4953 -15.3747
    14.6880  14.9964  15.3720  15.3720  16.5963  16.5963  17.7910  18.1051
    20.4064  21.2579

          k = 0.4000 0.4000 0.4000 (  6416 PWs)   bands (ev):

   -69.2001 -39.0179 -35.3050 -35.3049 -35.3049 -15.4615 -15.4615 -15.4607
    15.0741  15.4320  15.4320  15.6544  15.8424  15.8424  18.0461  18.0461
    20.8388  20.8388

          k = 0.4000 0.4000-0.5000 (  6422 PWs)   bands (ev):

   -69.1997 -39.0142 -35.3093 -35.3047 -35.3042 -15.4920 -15.4592 -15.4578
    15.1911  15.2360  15.5115  15.6245  15.8260  16.1000  17.8749  18.0172
    20.8519  21.1223

          k = 0.4000-0.5000-0.5000 (  6384 PWs)   bands (ev):

   -69.1994 -39.0106 -35.3089 -35.3089 -35.3039 -15.4893 -15.4893 -15.4561
    15.3773  15.3958  15.4134  15.4134  16.0280  16.0280  17.8008  17.9324
    20.9986  21.2787

          k =-0.5000-0.5000-0.5000 (  6488 PWs)   bands (ev):

   -69.1991 -39.0071 -35.3082 -35.3082 -35.3082 -15.4870 -15.4870 -15.4870
    15.5178  15.5178  15.5178  15.7399  15.7399  15.7399  17.8046  17.8046
    21.2866  21.2866

     the Fermi energy is    17.7494 ev

!    total energy              =    -448.58677061 Ry
     estimated scf accuracy    <          6.3E-10 Ry
     smearing contrib. (-TS)   =      -0.00005160 Ry
     internal energy E=F+TS    =    -448.58671901 Ry

     The total energy is F=E-TS. E is the sum of the following terms:
     one-electron contribution =    -151.36041019 Ry
     hartree contribution      =      91.63941382 Ry
     xc contribution           =     -52.89136146 Ry
     ewald contribution        =    -259.82070277 Ry
     one-center paw contrib.   =     -76.15365841 Ry

     convergence has been achieved in  43 iterations

     negative rho (up, down):  9.630E-04 0.000E+00

     Forces acting on atoms (cartesian axes, Ry/au):

     atom    1 type  1   force =     0.00000000    0.00000000    0.00000000
     atom    2 type  2   force =     0.00000000    0.00000000    0.00000000

     Total force =     0.000000     Total SCF correction =     0.000000


     Computing stress (Cartesian axis) and pressure


     negative rho (up, down):  9.630E-04 0.000E+00
          total   stress  (Ry/bohr**3)                   (kbar)     P=       28.88
   0.00019629   0.00000000   0.00000000           28.88        0.00        0.00
   0.00000000   0.00019629   0.00000000            0.00       28.88        0.00
   0.00000000   0.00000000   0.00019629            0.00        0.00       28.88


     Writing all to output data dir ./out/TiFe14.save/ :
     XML data file, charge density, pseudopotentials, collected wavefunctions

     init_run     :      2.66s CPU      2.89s WALL (       1 calls)
     electrons    :    250.88s CPU    265.04s WALL (       1 calls)
     forces       :      0.92s CPU      1.03s WALL (       1 calls)
     stress       :      4.41s CPU      4.72s WALL (       1 calls)

     Called by init_run:
     wfcinit      :      1.84s CPU      1.90s WALL (       1 calls)
     potinit      :      0.21s CPU      0.25s WALL (       1 calls)
     hinit0       :      0.27s CPU      0.28s WALL (       1 calls)

     Called by electrons:
     c_bands      :    194.19s CPU    198.32s WALL (      43 calls)
     sum_band     :     36.18s CPU     41.71s WALL (      43 calls)
     v_of_rho     :      3.80s CPU      3.93s WALL (      44 calls)
     newd         :     11.68s CPU     16.10s WALL (      44 calls)
     PAW_pot      :      4.29s CPU      4.33s WALL (      44 calls)
     mix_rho      :      0.74s CPU      0.76s WALL (      43 calls)

     Called by c_bands:
     init_us_2    :      4.16s CPU      4.21s WALL (    4984 calls)
     cegterg      :    186.21s CPU    190.29s WALL (    2408 calls)

     Called by *egterg:
     cdiaghg      :      3.48s CPU      3.50s WALL (   10524 calls)
     h_psi        :    136.16s CPU    140.07s WALL (   10580 calls)
     s_psi        :      8.30s CPU      8.35s WALL (   10580 calls)
     g_psi        :      0.42s CPU      0.42s WALL (    8116 calls)

     Called by h_psi:
     h_psi:calbec :     14.02s CPU     14.27s WALL (   10580 calls)
     vloc_psi     :    112.92s CPU    116.54s WALL (   10580 calls)
     add_vuspsi   :      8.20s CPU      8.24s WALL (   10580 calls)

     General routines
     calbec       :     19.15s CPU     19.46s WALL (   13940 calls)
     fft          :      2.27s CPU      2.48s WALL (     595 calls)
     ffts         :      0.07s CPU      0.07s WALL (      87 calls)
     fftw         :     83.84s CPU     86.78s WALL (  286438 calls)
     interpolate  :      0.25s CPU      0.27s WALL (      44 calls)

     Parallel routines

     PWSCF        :   4m19.11s CPU   4m33.99s WALL


   This run was terminated on:   1:23:20  30Oct2025            

=------------------------------------------------------------------------------=
   JOB DONE.
=------------------------------------------------------------------------------=
