
     Program PWSCF v.7.4.1 starts on 30Oct2025 at  1: 2:36 

     This program is part of the open-source Quantum ESPRESSO suite
     for quantum simulation of materials; please cite
         "P. Giannozzi et al., J. Phys.:Condens. Matter 21 395502 (2009);
         "P. Giannozzi et al., J. Phys.:Condens. Matter 29 465901 (2017);
         "P. Giannozzi et al., J. Chem. Phys. 152 154105 (2020);
          URL http://www.quantum-espresso.org", 
     in publications or presentations arising from this work. More details at
     http://www.quantum-espresso.org/quote

     Parallel version (MPI), running on     4 processors

     MPI processes distributed on     1 nodes
     5142 MiB available memory on the printing compute node when the environment starts

     Reading input from TiFe4.in

     Current dimensions of program PWSCF are:
     Max number of different atomic species (ntypx) = 10
     Max number of k-points (npk) =  40000
     Max angular momentum in pseudopotentials (lmaxx) =  4
     file Fe.pbe-spn-kjpaw_psl.0.2.1.UPF: wavefunction(s)  3D renormalized

     IMPORTANT: XC functional enforced from input :
     Exchange-correlation= PBE
                           (   1   4   3   4   0   0   0)
     Any further DFT definition will be discarded
     Please, verify this is what you really want

     Message from routine setup:
     using ibrav=0 with symmetry is DISCOURAGED, use correct ibrav instead

     R & G space division:  proc/nbgrp/npool/nimage =       4
     Subspace diagonalization in iterative solution of the eigenvalue problem:
     a serial algorithm will be used


     Parallelization info
     --------------------
     sticks:   dense  smooth     PW     G-vecs:    dense   smooth      PW
     Min         431     169     55                13409     3378     593
     Max         432     171     56                13412     3381     594
     Sum        1725     681    221                53643    13517    2373

     Using Slab Decomposition



     bravais-lattice index     =            0
     lattice parameter (alat)  =       5.5533  a.u.
     unit-cell volume          =     171.2590 (a.u.)^3
     number of atoms/cell      =            2
     number of atomic types    =            2
     number of electrons       =        28.00
     number of Kohn-Sham states=           18
     kinetic-energy cutoff     =      70.0000  Ry
     charge density cutoff     =     700.0000  Ry
     scf convergence threshold =      1.0E-08
     mixing beta               =       0.7000
     number of iterations used =            8  plain     mixing
     Exchange-correlation= PBE
                           (   1   4   3   4   0   0   0)

     celldm(1)=   5.553300  celldm(2)=   0.000000  celldm(3)=   0.000000
     celldm(4)=   0.000000  celldm(5)=   0.000000  celldm(6)=   0.000000

     crystal axes: (cart. coord. in units of alat)
               a(1) = (   1.000000   0.000000   0.000000 )  
               a(2) = (   0.000000   1.000000   0.000000 )  
               a(3) = (   0.000000   0.000000   1.000000 )  

     reciprocal axes: (cart. coord. in units 2 pi/alat)
               b(1) = (  1.000000  0.000000  0.000000 )  
               b(2) = (  0.000000  1.000000  0.000000 )  
               b(3) = (  0.000000  0.000000  1.000000 )  


     PseudoPot. # 1 for Fe read from file:
     /home/rafi/QE/qe-7.4.1/pseudo/Fe.pbe-spn-kjpaw_psl.0.2.1.UPF
     MD5 check sum: e86618425769142926afa95317d90200
     Pseudo is Projector augmented-wave + core cor, Zval = 16.0
     Generated using "atomic" code by A. Dal Corso  v.5.0.99 svn rev. 10869
     Shape of augmentation charge: PSQ
     Using radial grid of 1191 points,  6 beta functions with: 
                l(1) =   0
                l(2) =   0
                l(3) =   1
                l(4) =   1
                l(5) =   2
                l(6) =   2
     Q(r) pseudized with 0 coefficients 


     PseudoPot. # 2 for Ti read from file:
     /home/rafi/QE/qe-7.4.1/pseudo/ti_pbe_v1.4.uspp.F.UPF
     MD5 check sum: 88a00a6731bd790ddea75d31a80cb452
     Pseudo is Ultrasoft + core correction, Zval = 12.0
     Generated by new atomic code, or converted to UPF format
     Using radial grid of  851 points,  6 beta functions with: 
                l(1) =   0
                l(2) =   0
                l(3) =   1
                l(4) =   1
                l(5) =   2
                l(6) =   2
     Q(r) pseudized with  6 coefficients,  rinner =    1.000   1.000   1.000
                                                       1.000   1.000

     atomic species   valence    mass     pseudopotential
     Fe               16.00    55.84500     Fe( 1.00)
     Ti               12.00    47.86700     Ti( 1.00)

     48 Sym. Ops., with inversion, found



   Cartesian axes

     site n.     atom                  positions (alat units)
         1        Fe     tau(   1) = (   0.5000000   0.5000000   0.5000000  )
         2        Ti     tau(   2) = (   0.0000000   0.0000000   0.0000000  )

     number of k points=    56  Marzari-Vanderbilt smearing, width (Ry)=  0.0050
                       cart. coord. in units 2pi/alat
        k(    1) = (   0.0000000   0.0000000   0.0000000), wk =   0.0020000
        k(    2) = (   0.0000000   0.0000000   0.1000000), wk =   0.0120000
        k(    3) = (   0.0000000   0.0000000   0.2000000), wk =   0.0120000
        k(    4) = (   0.0000000   0.0000000   0.3000000), wk =   0.0120000
        k(    5) = (   0.0000000   0.0000000   0.4000000), wk =   0.0120000
        k(    6) = (   0.0000000   0.0000000  -0.5000000), wk =   0.0060000
        k(    7) = (   0.0000000   0.1000000   0.1000000), wk =   0.0240000
        k(    8) = (   0.0000000   0.1000000   0.2000000), wk =   0.0480000
        k(    9) = (   0.0000000   0.1000000   0.3000000), wk =   0.0480000
        k(   10) = (   0.0000000   0.1000000   0.4000000), wk =   0.0480000
        k(   11) = (   0.0000000   0.1000000  -0.5000000), wk =   0.0240000
        k(   12) = (   0.0000000   0.2000000   0.2000000), wk =   0.0240000
        k(   13) = (   0.0000000   0.2000000   0.3000000), wk =   0.0480000
        k(   14) = (   0.0000000   0.2000000   0.4000000), wk =   0.0480000
        k(   15) = (   0.0000000   0.2000000  -0.5000000), wk =   0.0240000
        k(   16) = (   0.0000000   0.3000000   0.3000000), wk =   0.0240000
        k(   17) = (   0.0000000   0.3000000   0.4000000), wk =   0.0480000
        k(   18) = (   0.0000000   0.3000000  -0.5000000), wk =   0.0240000
        k(   19) = (   0.0000000   0.4000000   0.4000000), wk =   0.0240000
        k(   20) = (   0.0000000   0.4000000  -0.5000000), wk =   0.0240000
        k(   21) = (   0.0000000  -0.5000000  -0.5000000), wk =   0.0060000
        k(   22) = (   0.1000000   0.1000000   0.1000000), wk =   0.0160000
        k(   23) = (   0.1000000   0.1000000   0.2000000), wk =   0.0480000
        k(   24) = (   0.1000000   0.1000000   0.3000000), wk =   0.0480000
        k(   25) = (   0.1000000   0.1000000   0.4000000), wk =   0.0480000
        k(   26) = (   0.1000000   0.1000000  -0.5000000), wk =   0.0240000
        k(   27) = (   0.1000000   0.2000000   0.2000000), wk =   0.0480000
        k(   28) = (   0.1000000   0.2000000   0.3000000), wk =   0.0960000
        k(   29) = (   0.1000000   0.2000000   0.4000000), wk =   0.0960000
        k(   30) = (   0.1000000   0.2000000  -0.5000000), wk =   0.0480000
        k(   31) = (   0.1000000   0.3000000   0.3000000), wk =   0.0480000
        k(   32) = (   0.1000000   0.3000000   0.4000000), wk =   0.0960000
        k(   33) = (   0.1000000   0.3000000  -0.5000000), wk =   0.0480000
        k(   34) = (   0.1000000   0.4000000   0.4000000), wk =   0.0480000
        k(   35) = (   0.1000000   0.4000000  -0.5000000), wk =   0.0480000
        k(   36) = (   0.1000000  -0.5000000  -0.5000000), wk =   0.0120000
        k(   37) = (   0.2000000   0.2000000   0.2000000), wk =   0.0160000
        k(   38) = (   0.2000000   0.2000000   0.3000000), wk =   0.0480000
        k(   39) = (   0.2000000   0.2000000   0.4000000), wk =   0.0480000
        k(   40) = (   0.2000000   0.2000000  -0.5000000), wk =   0.0240000
        k(   41) = (   0.2000000   0.3000000   0.3000000), wk =   0.0480000
        k(   42) = (   0.2000000   0.3000000   0.4000000), wk =   0.0960000
        k(   43) = (   0.2000000   0.3000000  -0.5000000), wk =   0.0480000
        k(   44) = (   0.2000000   0.4000000   0.4000000), wk =   0.0480000
        k(   45) = (   0.2000000   0.4000000  -0.5000000), wk =   0.0480000
        k(   46) = (   0.2000000  -0.5000000  -0.5000000), wk =   0.0120000
        k(   47) = (   0.3000000   0.3000000   0.3000000), wk =   0.0160000
        k(   48) = (   0.3000000   0.3000000   0.4000000), wk =   0.0480000
        k(   49) = (   0.3000000   0.3000000  -0.5000000), wk =   0.0240000
        k(   50) = (   0.3000000   0.4000000   0.4000000), wk =   0.0480000
        k(   51) = (   0.3000000   0.4000000  -0.5000000), wk =   0.0480000
        k(   52) = (   0.3000000  -0.5000000  -0.5000000), wk =   0.0120000
        k(   53) = (   0.4000000   0.4000000   0.4000000), wk =   0.0160000
        k(   54) = (   0.4000000   0.4000000  -0.5000000), wk =   0.0240000
        k(   55) = (   0.4000000  -0.5000000  -0.5000000), wk =   0.0120000
        k(   56) = (  -0.5000000  -0.5000000  -0.5000000), wk =   0.0020000

     Dense  grid:    53643 G-vectors     FFT dimensions: (  48,  48,  48)

     Smooth grid:    13517 G-vectors     FFT dimensions: (  30,  30,  30)

     Estimated max dynamical RAM per process >      60.04 MB

     Estimated total dynamical RAM >     240.15 MB

     Check: negative core charge=   -0.000019

     Initial potential from superposition of free atoms

     starting charge      26.9995, renormalised to      28.0000

     negative rho (up, down):  1.248E-03 0.000E+00
     Starting wfcs are   23 randomized atomic wfcs
     Checking if some PAW data can be deallocated... 

     total cpu time spent up to now is        1.1 secs

     Self-consistent Calculation

     iteration #  1     ecut=    70.00 Ry     beta= 0.70
     Davidson diagonalization with overlap
     ethr =  1.00E-02,  avg # of iterations =  2.2

     negative rho (up, down):  2.359E-04 0.000E+00

     total cpu time spent up to now is        2.4 secs

     total energy              =    -434.91285296 Ry
     estimated scf accuracy    <      17.43761786 Ry

     iteration #  2     ecut=    70.00 Ry     beta= 0.70
     Davidson diagonalization with overlap
     ethr =  1.00E-02,  avg # of iterations =  6.0

     negative rho (up, down):  8.274E-05 0.000E+00

     total cpu time spent up to now is        4.7 secs

     WARNING: integrated charge=    28.00015205, expected=    28.00000000

     total energy              =    -448.54695254 Ry
     estimated scf accuracy    <      65.84877324 Ry

     iteration #  3     ecut=    70.00 Ry     beta= 0.70
     Davidson diagonalization with overlap
     ethr =  1.00E-02,  avg # of iterations =  3.2

     negative rho (up, down):  1.740E-04 0.000E+00

     total cpu time spent up to now is        6.4 secs

     WARNING: integrated charge=    28.00002103, expected=    28.00000000

     total energy              =    -448.58192876 Ry
     estimated scf accuracy    <      16.75731199 Ry

     iteration #  4     ecut=    70.00 Ry     beta= 0.70
     Davidson diagonalization with overlap
     ethr =  1.00E-02,  avg # of iterations =  2.1

     negative rho (up, down):  1.804E-04 0.000E+00

     total cpu time spent up to now is        7.8 secs

     WARNING: integrated charge=    28.00002245, expected=    28.00000000

     total energy              =    -449.10224472 Ry
     estimated scf accuracy    <       4.82659247 Ry

     iteration #  5     ecut=    70.00 Ry     beta= 0.70
     Davidson diagonalization with overlap
     ethr =  1.00E-02,  avg # of iterations =  1.0

     negative rho (up, down):  1.833E-04 0.000E+00

     total cpu time spent up to now is        9.0 secs

     WARNING: integrated charge=    28.00002436, expected=    28.00000000

     total energy              =    -449.12009087 Ry
     estimated scf accuracy    <       4.38753966 Ry

     iteration #  6     ecut=    70.00 Ry     beta= 0.70
     Davidson diagonalization with overlap
     ethr =  1.00E-02,  avg # of iterations =  1.0

     negative rho (up, down):  7.322E-04 0.000E+00

     total cpu time spent up to now is       10.1 secs

     WARNING: integrated charge=    28.00000340, expected=    28.00000000

     total energy              =    -448.25261573 Ry
     estimated scf accuracy    <       4.43640241 Ry

     iteration #  7     ecut=    70.00 Ry     beta= 0.70
     Davidson diagonalization with overlap
     ethr =  1.00E-02,  avg # of iterations =  1.7

     negative rho (up, down):  7.258E-04 0.000E+00

     total cpu time spent up to now is       11.4 secs

     WARNING: integrated charge=    28.00000402, expected=    28.00000000

     total energy              =    -448.57214174 Ry
     estimated scf accuracy    <       0.15104640 Ry

     iteration #  8     ecut=    70.00 Ry     beta= 0.70
     Davidson diagonalization with overlap
     ethr =  5.39E-04,  avg # of iterations =  4.3

     negative rho (up, down):  1.261E-03 0.000E+00

     total cpu time spent up to now is       13.0 secs

     WARNING: integrated charge=    28.00002299, expected=    28.00000000

     total energy              =    -448.56306607 Ry
     estimated scf accuracy    <       0.11790863 Ry

     iteration #  9     ecut=    70.00 Ry     beta= 0.70
     Davidson diagonalization with overlap
     ethr =  4.21E-04,  avg # of iterations =  3.4

     negative rho (up, down):  1.019E-03 0.000E+00

     total cpu time spent up to now is       14.8 secs

     WARNING: integrated charge=    28.00000723, expected=    28.00000000

     total energy              =    -448.42411888 Ry
     estimated scf accuracy    <       1.37129765 Ry

     iteration # 10     ecut=    70.00 Ry     beta= 0.70
     Davidson diagonalization with overlap
     ethr =  4.21E-04,  avg # of iterations =  4.4

     negative rho (up, down):  9.808E-04 0.000E+00

     total cpu time spent up to now is       16.3 secs

     WARNING: integrated charge=    28.00001322, expected=    28.00000000

     total energy              =    -448.58792607 Ry
     estimated scf accuracy    <       0.62091242 Ry

     iteration # 11     ecut=    70.00 Ry     beta= 0.70
     Davidson diagonalization with overlap
     ethr =  4.21E-04,  avg # of iterations =  1.5

     negative rho (up, down):  8.006E-04 0.000E+00

     total cpu time spent up to now is       17.6 secs

     total energy              =    -448.59262913 Ry
     estimated scf accuracy    <       0.16829098 Ry

     iteration # 12     ecut=    70.00 Ry     beta= 0.70
     Davidson diagonalization with overlap
     ethr =  4.21E-04,  avg # of iterations =  1.9

     negative rho (up, down):  7.996E-04 0.000E+00

     total cpu time spent up to now is       18.9 secs

     total energy              =    -448.54807084 Ry
     estimated scf accuracy    <       0.36771451 Ry

     iteration # 13     ecut=    70.00 Ry     beta= 0.70
     Davidson diagonalization with overlap
     ethr =  4.21E-04,  avg # of iterations =  3.2

     negative rho (up, down):  7.861E-04 0.000E+00

     total cpu time spent up to now is       20.2 secs

     total energy              =    -448.58467703 Ry
     estimated scf accuracy    <       0.05273474 Ry

     iteration # 14     ecut=    70.00 Ry     beta= 0.70
     Davidson diagonalization with overlap
     ethr =  1.88E-04,  avg # of iterations =  1.0

     negative rho (up, down):  9.822E-04 0.000E+00

     total cpu time spent up to now is       21.4 secs

     total energy              =    -448.57318188 Ry
     estimated scf accuracy    <       0.04887261 Ry

     iteration # 15     ecut=    70.00 Ry     beta= 0.70
     Davidson diagonalization with overlap
     ethr =  1.75E-04,  avg # of iterations =  2.8

     negative rho (up, down):  9.149E-04 0.000E+00

     total cpu time spent up to now is       22.9 secs

     total energy              =    -448.57607757 Ry
     estimated scf accuracy    <       0.04333145 Ry

     iteration # 16     ecut=    70.00 Ry     beta= 0.70
     Davidson diagonalization with overlap
     ethr =  1.55E-04,  avg # of iterations =  1.7

     negative rho (up, down):  8.932E-04 0.000E+00

     total cpu time spent up to now is       24.2 secs

     total energy              =    -448.58083552 Ry
     estimated scf accuracy    <       0.02013625 Ry

     iteration # 17     ecut=    70.00 Ry     beta= 0.70
     Davidson diagonalization with overlap
     ethr =  7.19E-05,  avg # of iterations =  1.1

     negative rho (up, down):  9.125E-04 0.000E+00

     total cpu time spent up to now is       25.4 secs

     total energy              =    -448.58163285 Ry
     estimated scf accuracy    <       0.00070887 Ry

     iteration # 18     ecut=    70.00 Ry     beta= 0.70
     Davidson diagonalization with overlap
     ethr =  2.53E-06,  avg # of iterations =  3.0

     negative rho (up, down):  8.945E-04 0.000E+00

     total cpu time spent up to now is       26.8 secs

     total energy              =    -448.58156336 Ry
     estimated scf accuracy    <       0.00075551 Ry

     iteration # 19     ecut=    70.00 Ry     beta= 0.70
     Davidson diagonalization with overlap
     ethr =  2.53E-06,  avg # of iterations =  2.0

     negative rho (up, down):  9.024E-04 0.000E+00

     total cpu time spent up to now is       28.0 secs

     total energy              =    -448.58164505 Ry
     estimated scf accuracy    <       0.00003782 Ry

     iteration # 20     ecut=    70.00 Ry     beta= 0.70
     Davidson diagonalization with overlap
     ethr =  1.35E-07,  avg # of iterations =  4.6

     negative rho (up, down):  9.015E-04 0.000E+00

     total cpu time spent up to now is       29.6 secs

     total energy              =    -448.58165751 Ry
     estimated scf accuracy    <       0.00002008 Ry

     iteration # 21     ecut=    70.00 Ry     beta= 0.70
     Davidson diagonalization with overlap
     ethr =  7.17E-08,  avg # of iterations =  1.1

     negative rho (up, down):  9.016E-04 0.000E+00

     total cpu time spent up to now is       30.8 secs

     total energy              =    -448.58165892 Ry
     estimated scf accuracy    <       0.00000084 Ry

     iteration # 22     ecut=    70.00 Ry     beta= 0.70
     Davidson diagonalization with overlap
     ethr =  2.99E-09,  avg # of iterations =  4.5

     negative rho (up, down):  9.017E-04 0.000E+00

     total cpu time spent up to now is       32.4 secs

     total energy              =    -448.58165910 Ry
     estimated scf accuracy    <       0.00000089 Ry

     iteration # 23     ecut=    70.00 Ry     beta= 0.70
     Davidson diagonalization with overlap
     ethr =  2.99E-09,  avg # of iterations =  1.2

     negative rho (up, down):  9.017E-04 0.000E+00

     total cpu time spent up to now is       33.5 secs

     total energy              =    -448.58165913 Ry
     estimated scf accuracy    <       0.00000005 Ry

     iteration # 24     ecut=    70.00 Ry     beta= 0.70
     Davidson diagonalization with overlap
     ethr =  1.78E-10,  avg # of iterations =  3.5

     negative rho (up, down):  9.017E-04 0.000E+00

     total cpu time spent up to now is       35.0 secs

     End of self-consistent calculation

          k = 0.0000 0.0000 0.0000 (  1743 PWs)   bands (ev):

   -69.2096 -39.1178 -35.2669 -35.2669 -35.2669 -15.2134 -15.2134 -15.2134
    10.1553  13.8680  13.8680  16.6607  16.6607  16.6607  19.0121  19.0121
    20.9616  20.9616

          k = 0.0000 0.0000 0.1000 (  1723 PWs)   bands (ev):

   -69.2093 -39.1152 -35.2692 -35.2663 -35.2663 -15.2486 -15.2112 -15.2112
    10.3644  13.9685  13.9760  16.6453  16.6453  16.7062  18.8846  19.0596
    20.6622  20.6622

          k = 0.0000 0.0000 0.2000 (  1711 PWs)   bands (ev):

   -69.2084 -39.1086 -35.2770 -35.2648 -35.2648 -15.3402 -15.2057 -15.2057
    10.9666  14.2467  14.2609  16.6121  16.6121  16.8316  18.5193  19.1575
    19.9949  19.9949

          k = 0.0000 0.0000 0.3000 (  1695 PWs)   bands (ev):

   -69.2073 -39.1003 -35.2865 -35.2629 -35.2629 -15.4518 -15.1988 -15.1988
    11.8850  14.5182  14.7132  16.5884  16.5884  17.0019  17.9727  19.1439
    19.3033  19.3033

          k = 0.0000 0.0000 0.4000 (  1698 PWs)   bands (ev):

   -69.2064 -39.0936 -35.2942 -35.2619 -35.2619 -15.5409 -15.1933 -15.1933
    12.9721  14.5226  15.2408  16.5894  16.5894  17.1559  17.3657  18.7996
    18.7996  18.8407

          k = 0.0000 0.0000-0.5000 (  1686 PWs)   bands (ev):

   -69.2061 -39.0911 -35.2966 -35.2613 -35.2613 -15.5746 -15.1912 -15.1912
    13.8543  14.0982  15.5503  16.5966  16.5966  17.0253  17.2197  18.6039
    18.6135  18.6135

          k = 0.0000 0.1000 0.1000 (  1717 PWs)   bands (ev):

   -69.2089 -39.1125 -35.2706 -35.2674 -35.2658 -15.2498 -15.2424 -15.2090
    10.5683  14.0624  14.0854  16.5465  16.6187  16.8182  18.8704  19.0249
    20.3452  20.3637

          k = 0.0000 0.1000 0.2000 (  1717 PWs)   bands (ev):

   -69.2080 -39.1053 -35.2778 -35.2678 -35.2645 -15.3370 -15.2391 -15.2032
    11.1540  14.3134  14.3790  16.4533  16.5559  16.9426  18.5992  19.1112
    19.7247  19.7896

          k = 0.0000 0.1000 0.3000 (  1705 PWs)   bands (ev):

   -69.2070 -39.0965 -35.2874 -35.2669 -35.2628 -15.4471 -15.2312 -15.1960
    12.0408  14.5843  14.7905  16.4124  16.4895  17.0009  18.1505  18.9342
    19.3065  19.3289

          k = 0.0000 0.1000 0.4000 (  1696 PWs)   bands (ev):

   -69.2061 -39.0893 -35.2952 -35.2663 -35.2613 -15.5351 -15.2247 -15.1901
    13.0771  14.5745  15.2650  16.4275  16.4351  16.9498  17.6913  18.4913
    19.0549  19.1760

          k = 0.0000 0.1000-0.5000 (  1690 PWs)   bands (ev):

   -69.2057 -39.0866 -35.2980 -35.2661 -35.2607 -15.5685 -15.2223 -15.1879
    13.8898  14.1760  15.5399  16.3644  16.4693  16.8886  17.4918  18.2986
    18.9967  19.0376

          k = 0.0000 0.2000 0.2000 (  1703 PWs)   bands (ev):

   -69.2072 -39.0969 -35.2811 -35.2735 -35.2632 -15.3369 -15.3177 -15.1966
    11.6842  14.4589  14.7166  16.2484  16.4387  16.9760  18.6937  19.0708
    19.1646  19.5120

          k = 0.0000 0.2000 0.3000 (  1697 PWs)   bands (ev):

   -69.2061 -39.0864 -35.2898 -35.2764 -35.2616 -15.4352 -15.3150 -15.1884
    12.4587  14.5859  15.1553  16.1178  16.3562  16.8050  18.5191  18.6569
    19.2423  19.4523

          k = 0.0000 0.2000 0.4000 (  1685 PWs)   bands (ev):

   -69.2052 -39.0779 -35.2978 -35.2775 -35.2602 -15.5201 -15.3063 -15.1817
    13.3018  14.5122  15.5496  16.1022  16.3966  16.5263  18.2079  18.3900
    19.3866  19.5808

          k = 0.0000 0.2000-0.5000 (  1688 PWs)   bands (ev):

   -69.2049 -39.0747 -35.3013 -35.2778 -35.2598 -15.5524 -15.3029 -15.1792
    13.8631  14.2467  15.7184  16.1641  16.3455  16.4746  18.1436  18.1932
    19.4195  19.6801

          k = 0.0000 0.3000 0.3000 (  1692 PWs)   bands (ev):

   -69.2050 -39.0739 -35.2945 -35.2867 -35.2600 -15.4284 -15.4094 -15.1789
    12.9924  14.4749  15.6979  15.8856  16.4019  16.4435  18.5235  18.8402
    19.1329  19.7671

          k = 0.0000 0.3000 0.4000 (  1691 PWs)   bands (ev):

   -69.2042 -39.0638 -35.3017 -35.2917 -35.2589 -15.5016 -15.4059 -15.1713
    13.4503  14.2831  15.7867  16.0928  16.1636  16.7726  18.3547  18.8605
    19.3469  20.1200

          k = 0.0000 0.3000-0.5000 (  1682 PWs)   bands (ev):

   -69.2038 -39.0599 -35.3051 -35.2927 -35.2583 -15.5324 -15.4015 -15.1684
    13.6642  14.1469  15.8282  15.8873  16.3172  17.1789  18.0921  18.8635
    19.5293  20.3202

          k = 0.0000 0.4000 0.4000 (  1680 PWs)   bands (ev):

   -69.2033 -39.0523 -35.3051 -35.3023 -35.2576 -15.4896 -15.4824 -15.1629
    13.4659  14.0831  15.5990  15.7594  16.8967  17.3565  18.5902  19.0633
    19.2695  20.5494

          k = 0.0000 0.4000-0.5000 (  1676 PWs)   bands (ev):

   -69.2030 -39.0479 -35.3081 -35.3047 -35.2571 -15.5163 -15.4802 -15.1597
    13.4517  14.0088  15.5811  15.5925  17.1867  18.0975  18.1531  19.2075
    19.3352  20.7698

          k = 0.0000-0.5000-0.5000 (  1692 PWs)   bands (ev):

   -69.2027 -39.0433 -35.3096 -35.3096 -35.2570 -15.5101 -15.5101 -15.1563
    13.3668  13.9521  15.4914  15.4914  17.7664  18.1986  18.7278  18.7278
    19.4589  20.9320

          k = 0.1000 0.1000 0.1000 (  1701 PWs)   bands (ev):

   -69.2086 -39.1096 -35.2699 -35.2699 -35.2659 -15.2501 -15.2402 -15.2402
    10.7682  14.1736  14.1736  16.5173  16.5173  16.9000  18.9352  18.9352
    19.8739  20.6363

          k = 0.1000 0.1000 0.2000 (  1703 PWs)   bands (ev):

   -69.2077 -39.1020 -35.2780 -35.2687 -35.2661 -15.3337 -15.2384 -15.2346
    11.3401  14.4279  14.4494  16.3895  16.4413  16.9573  18.6790  19.0698
    19.4086  19.9671

          k = 0.1000 0.1000 0.3000 (  1708 PWs)   bands (ev):

   -69.2066 -39.0926 -35.2882 -35.2673 -35.2661 -15.4427 -15.2290 -15.2276
    12.2002  14.7087  14.8127  16.3387  16.3393  16.8876  18.3042  18.9302
    19.2921  19.3793

          k = 0.1000 0.1000 0.4000 (  1702 PWs)   bands (ev):

   -69.2058 -39.0850 -35.2961 -35.2662 -35.2658 -15.5297 -15.2219 -15.2213
    13.1934  14.6664  15.2456  16.2088  16.4190  16.7678  17.9276  18.5967
    18.8196  19.5670

          k = 0.1000 0.1000-0.5000 (  1700 PWs)   bands (ev):

   -69.2054 -39.0821 -35.2990 -35.2658 -35.2657 -15.5627 -15.2197 -15.2184
    13.9520  14.2732  15.4955  16.1008  16.5449  16.6885  17.7580  18.3719
    18.6514  19.6920

          k = 0.1000 0.2000 0.2000 (  1696 PWs)   bands (ev):

   -69.2068 -39.0933 -35.2805 -35.2744 -35.2662 -15.3327 -15.3154 -15.2293
    11.8654  14.5888  14.7687  16.2020  16.3106  16.8256  18.7780  19.0455
    19.2072  19.6815

          k = 0.1000 0.2000 0.3000 (  1690 PWs)   bands (ev):

   -69.2058 -39.0825 -35.2898 -35.2764 -35.2654 -15.4310 -15.3120 -15.2205
    12.6285  14.7357  15.1579  16.0630  16.2177  16.5714  18.6403  18.8386
    19.2280  19.5792

          k = 0.1000 0.2000 0.4000 (  1689 PWs)   bands (ev):

   -69.2049 -39.0738 -35.2984 -35.2772 -35.2647 -15.5155 -15.3034 -15.2133
    13.4492  14.6602  15.4555  15.9843  16.2820  16.4380  18.4017  18.4761
    19.0361  20.0456

          k = 0.1000 0.2000-0.5000 (  1690 PWs)   bands (ev):

   -69.2046 -39.0705 -35.3018 -35.2774 -35.2643 -15.5476 -15.3000 -15.2106
    13.9869  14.3859  15.5835  15.9428  16.2973  16.5351  18.2057  18.3569
    18.8939  20.4172

          k = 0.1000 0.3000 0.3000 (  1695 PWs)   bands (ev):

   -69.2047 -39.0701 -35.2941 -35.2870 -35.2643 -15.4239 -15.4071 -15.2109
    13.1719  14.6254  15.6904  15.8425  16.2045  16.2557  18.6284  18.9945
    19.0906  19.9900

          k = 0.1000 0.3000 0.4000 (  1687 PWs)   bands (ev):

   -69.2039 -39.0599 -35.3014 -35.2913 -35.2633 -15.4979 -15.4032 -15.2031
    13.6219  14.4330  15.7353  15.8981  16.1756  16.6073  18.3913  18.9407
    19.1411  20.5316

          k = 0.1000 0.3000-0.5000 (  1688 PWs)   bands (ev):

   -69.2035 -39.0560 -35.3051 -35.2922 -35.2629 -15.5288 -15.3988 -15.2001
    13.8204  14.3017  15.7546  15.7687  16.2759  17.0320  18.1138  18.9953
    19.0345  20.7115

          k = 0.1000 0.4000 0.4000 (  1682 PWs)   bands (ev):

   -69.2030 -39.0486 -35.3045 -35.3020 -35.2623 -15.4865 -15.4801 -15.1948
    13.6354  14.2356  15.5672  15.6962  16.8230  17.1383  18.4702  18.8227
    19.3739  20.8245

          k = 0.1000 0.4000-0.5000 (  1690 PWs)   bands (ev):

   -69.2027 -39.0443 -35.3078 -35.3042 -35.2620 -15.5136 -15.4778 -15.1917
    13.6161  14.1637  15.5473  15.5546  17.0867  17.8140  18.0899  18.7850
    19.4440  20.9306

          k = 0.1000-0.5000-0.5000 (  1688 PWs)   bands (ev):

   -69.2024 -39.0398 -35.3088 -35.3088 -35.2614 -15.5078 -15.5078 -15.1884
    13.5329  14.1063  15.4661  15.4661  17.7702  18.1997  18.2148  18.2148
    19.5633  21.5861

          k = 0.2000 0.2000 0.2000 (  1692 PWs)   bands (ev):

   -69.2060 -39.0840 -35.2793 -35.2793 -35.2719 -15.3265 -15.3095 -15.3095
    12.3725  14.9130  14.9130  16.0820  16.0820  16.4327  18.9685  18.9685
    19.4649  19.9352

          k = 0.2000 0.2000 0.3000 (  1689 PWs)   bands (ev):

   -69.2049 -39.0725 -35.2900 -35.2777 -35.2747 -15.4203 -15.3059 -15.3022
    13.0885  15.1140  15.1642  15.9304  15.9546  16.1248  18.8468  18.9712
    19.3208  19.9300

          k = 0.2000 0.2000 0.4000 (  1701 PWs)   bands (ev):

   -69.2041 -39.0631 -35.2997 -35.2765 -35.2763 -15.5034 -15.2963 -15.2948
    13.8079  14.9439  15.3152  15.7862  16.0511  16.2695  18.5614  18.7111
    18.9287  20.4855

          k = 0.2000 0.2000-0.5000 (  1692 PWs)   bands (ev):

   -69.2037 -39.0595 -35.3032 -35.2769 -35.2757 -15.5349 -15.2940 -15.2904
    14.2342  14.6450  15.4212  15.7064  16.1296  16.5044  18.2230  18.6389
    18.8089  20.5950

          k = 0.2000 0.3000 0.3000 (  1692 PWs)   bands (ev):

   -69.2039 -39.0600 -35.2923 -35.2879 -35.2756 -15.4123 -15.4010 -15.2940
    13.6690  15.0211  15.6565  15.7410  15.7748  15.8899  18.7396  18.9309
    19.4213  20.1890

          k = 0.2000 0.3000 0.4000 (  1689 PWs)   bands (ev):

   -69.2030 -39.0498 -35.3011 -35.2904 -35.2750 -15.4885 -15.3958 -15.2858
    14.0943  14.8012  15.5860  15.6422  15.9976  16.2878  18.4355  18.6973
    19.4011  20.5255

          k = 0.2000 0.3000-0.5000 (  1698 PWs)   bands (ev):

   -69.2027 -39.0459 -35.3053 -35.2909 -35.2749 -15.5193 -15.3919 -15.2826
    14.2413  14.6729  15.5444  15.6108  16.0984  16.6930  18.1170  18.6019
    19.3726  20.6991

          k = 0.2000 0.4000 0.4000 (  1689 PWs)   bands (ev):

   -69.2022 -39.0390 -35.3030 -35.3013 -35.2739 -15.4783 -15.4741 -15.2779
    14.1138  14.6235  15.4932  15.5686  16.5854  16.5933  18.3662  18.4180
    19.7081  20.7857

          k = 0.2000 0.4000-0.5000 (  1702 PWs)   bands (ev):

   -69.2019 -39.0349 -35.3068 -35.3028 -35.2738 -15.5066 -15.4716 -15.2748
    14.0797  14.5611  15.4719  15.4759  16.7370  17.1427  18.0245  18.3771
    19.7747  20.9854

          k = 0.2000-0.5000-0.5000 (  1688 PWs)   bands (ev):

   -69.2015 -39.0306 -35.3071 -35.3071 -35.2731 -15.5018 -15.5018 -15.2718
    14.0047  14.5089  15.4101  15.4101  17.3627  17.3627  17.7800  18.1850
    19.8829  21.2343

          k = 0.3000 0.3000 0.3000 (  1694 PWs)   bands (ev):

   -69.2028 -39.0474 -35.2907 -35.2907 -35.2875 -15.3998 -15.3935 -15.3935
    14.3168  15.2859  15.5727  15.5727  15.6468  15.6468  18.6770  18.6770
    19.9794  19.9794

          k = 0.3000 0.3000 0.4000 (  1688 PWs)   bands (ev):

   -69.2020 -39.0373 -35.3008 -35.2893 -35.2891 -15.4768 -15.3874 -15.3859
    14.6637  15.0432  15.4908  15.5738  15.7273  16.0947  18.3403  18.4761
    19.9128  20.5353

          k = 0.3000 0.3000-0.5000 (  1690 PWs)   bands (ev):

   -69.2017 -39.0334 -35.3050 -35.2897 -35.2886 -15.5075 -15.3851 -15.3815
    14.6754  14.9584  15.4619  15.5404  15.8977  16.4384  18.0398  18.4062
    19.8988  20.7782

          k = 0.3000 0.4000 0.4000 (  1697 PWs)   bands (ev):

   -69.2012 -39.0271 -35.3012 -35.3005 -35.2884 -15.4682 -15.4666 -15.3792
    14.7770  15.0351  15.4293  15.5539  16.0149  16.2158  18.1593  18.2631
    20.2463  20.8091

          k = 0.3000 0.4000-0.5000 (  1690 PWs)   bands (ev):

   -69.2008 -39.0232 -35.3051 -35.3007 -35.2878 -15.4980 -15.4638 -15.3763
    14.7278  15.0002  15.4360  15.4507  16.2238  16.5080  17.9326  18.2065
    20.3042  21.0393

          k = 0.3000-0.5000-0.5000 (  1700 PWs)   bands (ev):

   -69.2005 -39.0193 -35.3053 -35.3053 -35.2875 -15.4943 -15.4943 -15.3737
    14.6922  14.9977  15.3739  15.3739  16.6033  16.6033  17.7921  18.1068
    20.4079  21.2598

          k = 0.4000 0.4000 0.4000 (  1691 PWs)   bands (ev):

   -69.2003 -39.0174 -35.2998 -35.2995 -35.2995 -15.4605 -15.4605 -15.4597
    15.0765  15.4342  15.4342  15.6596  15.8474  15.8474  18.0481  18.0481
    20.8404  20.8404

          k = 0.4000 0.4000-0.5000 (  1680 PWs)   bands (ev):

   -69.2000 -39.0137 -35.3038 -35.2992 -35.2988 -15.4909 -15.4582 -15.4568
    15.1948  15.2376  15.5129  15.6305  15.8300  16.1072  17.8763  18.0190
    20.8536  21.1241

          k = 0.4000-0.5000-0.5000 (  1688 PWs)   bands (ev):

   -69.1997 -39.0101 -35.3035 -35.3035 -35.2985 -15.4883 -15.4883 -15.4551
    15.3787  15.4018  15.4157  15.4157  16.0343  16.0343  17.8020  17.9339
    21.0003  21.2805

          k =-0.5000-0.5000-0.5000 (  1640 PWs)   bands (ev):

   -69.1993 -39.0066 -35.3021 -35.3021 -35.3021 -15.4859 -15.4859 -15.4859
    15.5192  15.5192  15.5192  15.7476  15.7476  15.7476  17.8057  17.8057
    21.2885  26.2345

     the Fermi energy is    17.7514 ev

!    total energy              =    -448.58165914 Ry
     estimated scf accuracy    <          5.0E-10 Ry
     smearing contrib. (-TS)   =      -0.00004738 Ry
     internal energy E=F+TS    =    -448.58161176 Ry

     The total energy is F=E-TS. E is the sum of the following terms:
     one-electron contribution =    -151.35601691 Ry
     hartree contribution      =      91.63905067 Ry
     xc contribution           =     -52.89128333 Ry
     ewald contribution        =    -259.82070277 Ry
     one-center paw contrib.   =     -76.15265942 Ry

     convergence has been achieved in  24 iterations

     negative rho (up, down):  9.017E-04 0.000E+00

     Forces acting on atoms (cartesian axes, Ry/au):

     atom    1 type  1   force =     0.00000000    0.00000000    0.00000000
     atom    2 type  2   force =     0.00000000    0.00000000    0.00000000

     Total force =     0.000000     Total SCF correction =     0.000000


     Computing stress (Cartesian axis) and pressure


     negative rho (up, down):  9.017E-04 0.000E+00
          total   stress  (Ry/bohr**3)                   (kbar)     P=       14.63
   0.00009944   0.00000000   0.00000000           14.63        0.00        0.00
   0.00000000   0.00009944   0.00000000            0.00       14.63        0.00
   0.00000000   0.00000000   0.00009944            0.00        0.00       14.63


     Writing all to output data dir ./out/TiFe4.save/ :
     XML data file, charge density, pseudopotentials, collected wavefunctions

     init_run     :      0.81s CPU      0.89s WALL (       1 calls)
     electrons    :     30.58s CPU     33.88s WALL (       1 calls)
     forces       :      0.23s CPU      0.26s WALL (       1 calls)
     stress       :      1.06s CPU      1.14s WALL (       1 calls)

     Called by init_run:
     wfcinit      :      0.37s CPU      0.39s WALL (       1 calls)
     potinit      :      0.12s CPU      0.14s WALL (       1 calls)
     hinit0       :      0.16s CPU      0.16s WALL (       1 calls)

     Called by electrons:
     c_bands      :     21.31s CPU     22.59s WALL (      24 calls)
     sum_band     :      4.58s CPU      5.58s WALL (      24 calls)
     v_of_rho     :      0.41s CPU      0.42s WALL (      25 calls)
     newd         :      1.80s CPU      2.50s WALL (      25 calls)
     PAW_pot      :      2.55s CPU      2.88s WALL (      25 calls)
     mix_rho      :      0.05s CPU      0.05s WALL (      24 calls)

     Called by c_bands:
     init_us_2    :      0.40s CPU      0.41s WALL (    2856 calls)
     cegterg      :     20.35s CPU     21.61s WALL (    1344 calls)

     Called by *egterg:
     cdiaghg      :      1.52s CPU      1.56s WALL (    4848 calls)
     h_psi        :     13.62s CPU     14.74s WALL (    4904 calls)
     s_psi        :      1.06s CPU      1.09s WALL (    4904 calls)
     g_psi        :      0.05s CPU      0.05s WALL (    3504 calls)

     Called by h_psi:
     h_psi:calbec :      1.35s CPU      1.46s WALL (    4904 calls)
     vloc_psi     :     11.11s CPU     12.06s WALL (    4904 calls)
     add_vuspsi   :      1.04s CPU      1.10s WALL (    4904 calls)

     General routines
     calbec       :      2.18s CPU      2.33s WALL (    7200 calls)
     fft          :      0.19s CPU      0.21s WALL (     348 calls)
     ffts         :      0.01s CPU      0.01s WALL (      49 calls)
     fftw         :     11.35s CPU     12.31s WALL (  145310 calls)
     interpolate  :      0.02s CPU      0.03s WALL (      25 calls)

     Parallel routines

     PWSCF        :     32.90s CPU     36.42s WALL


   This run was terminated on:   1: 3:12  30Oct2025            

=------------------------------------------------------------------------------=
   JOB DONE.
=------------------------------------------------------------------------------=
