
     Program PWSCF v.7.4.1 starts on 30Oct2025 at  1: 1: 8 

     This program is part of the open-source Quantum ESPRESSO suite
     for quantum simulation of materials; please cite
         "P. Giannozzi et al., J. Phys.:Condens. Matter 21 395502 (2009);
         "P. Giannozzi et al., J. Phys.:Condens. Matter 29 465901 (2017);
         "P. Giannozzi et al., J. Chem. Phys. 152 154105 (2020);
          URL http://www.quantum-espresso.org", 
     in publications or presentations arising from this work. More details at
     http://www.quantum-espresso.org/quote

     Parallel version (MPI), running on     4 processors

     MPI processes distributed on     1 nodes
     5242 MiB available memory on the printing compute node when the environment starts

     Reading input from TiFe1.in

     Current dimensions of program PWSCF are:
     Max number of different atomic species (ntypx) = 10
     Max number of k-points (npk) =  40000
     Max angular momentum in pseudopotentials (lmaxx) =  4
     file Fe.pbe-spn-kjpaw_psl.0.2.1.UPF: wavefunction(s)  3D renormalized

     IMPORTANT: XC functional enforced from input :
     Exchange-correlation= PBE
                           (   1   4   3   4   0   0   0)
     Any further DFT definition will be discarded
     Please, verify this is what you really want

     Message from routine setup:
     using ibrav=0 with symmetry is DISCOURAGED, use correct ibrav instead

     R & G space division:  proc/nbgrp/npool/nimage =       4
     Subspace diagonalization in iterative solution of the eigenvalue problem:
     a serial algorithm will be used


     Parallelization info
     --------------------
     sticks:   dense  smooth     PW     G-vecs:    dense   smooth      PW
     Min         243      96     33                 5757     1434     285
     Max         244      97     35                 5760     1437     286
     Sum         973     385    137                23031     5743    1141

     Using Slab Decomposition



     bravais-lattice index     =            0
     lattice parameter (alat)  =       5.5533  a.u.
     unit-cell volume          =     171.2590 (a.u.)^3
     number of atoms/cell      =            2
     number of atomic types    =            2
     number of electrons       =        28.00
     number of Kohn-Sham states=           18
     kinetic-energy cutoff     =      40.0000  Ry
     charge density cutoff     =     400.0000  Ry
     scf convergence threshold =      1.0E-08
     mixing beta               =       0.7000
     number of iterations used =            8  plain     mixing
     Exchange-correlation= PBE
                           (   1   4   3   4   0   0   0)

     celldm(1)=   5.553300  celldm(2)=   0.000000  celldm(3)=   0.000000
     celldm(4)=   0.000000  celldm(5)=   0.000000  celldm(6)=   0.000000

     crystal axes: (cart. coord. in units of alat)
               a(1) = (   1.000000   0.000000   0.000000 )  
               a(2) = (   0.000000   1.000000   0.000000 )  
               a(3) = (   0.000000   0.000000   1.000000 )  

     reciprocal axes: (cart. coord. in units 2 pi/alat)
               b(1) = (  1.000000  0.000000  0.000000 )  
               b(2) = (  0.000000  1.000000  0.000000 )  
               b(3) = (  0.000000  0.000000  1.000000 )  


     PseudoPot. # 1 for Fe read from file:
     /home/rafi/QE/qe-7.4.1/pseudo/Fe.pbe-spn-kjpaw_psl.0.2.1.UPF
     MD5 check sum: e86618425769142926afa95317d90200
     Pseudo is Projector augmented-wave + core cor, Zval = 16.0
     Generated using "atomic" code by A. Dal Corso  v.5.0.99 svn rev. 10869
     Shape of augmentation charge: PSQ
     Using radial grid of 1191 points,  6 beta functions with: 
                l(1) =   0
                l(2) =   0
                l(3) =   1
                l(4) =   1
                l(5) =   2
                l(6) =   2
     Q(r) pseudized with 0 coefficients 


     PseudoPot. # 2 for Ti read from file:
     /home/rafi/QE/qe-7.4.1/pseudo/ti_pbe_v1.4.uspp.F.UPF
     MD5 check sum: 88a00a6731bd790ddea75d31a80cb452
     Pseudo is Ultrasoft + core correction, Zval = 12.0
     Generated by new atomic code, or converted to UPF format
     Using radial grid of  851 points,  6 beta functions with: 
                l(1) =   0
                l(2) =   0
                l(3) =   1
                l(4) =   1
                l(5) =   2
                l(6) =   2
     Q(r) pseudized with  6 coefficients,  rinner =    1.000   1.000   1.000
                                                       1.000   1.000

     atomic species   valence    mass     pseudopotential
     Fe               16.00    55.84500     Fe( 1.00)
     Ti               12.00    47.86700     Ti( 1.00)

     48 Sym. Ops., with inversion, found



   Cartesian axes

     site n.     atom                  positions (alat units)
         1        Fe     tau(   1) = (   0.5000000   0.5000000   0.5000000  )
         2        Ti     tau(   2) = (   0.0000000   0.0000000   0.0000000  )

     number of k points=    56  Marzari-Vanderbilt smearing, width (Ry)=  0.0050
                       cart. coord. in units 2pi/alat
        k(    1) = (   0.0000000   0.0000000   0.0000000), wk =   0.0020000
        k(    2) = (   0.0000000   0.0000000   0.1000000), wk =   0.0120000
        k(    3) = (   0.0000000   0.0000000   0.2000000), wk =   0.0120000
        k(    4) = (   0.0000000   0.0000000   0.3000000), wk =   0.0120000
        k(    5) = (   0.0000000   0.0000000   0.4000000), wk =   0.0120000
        k(    6) = (   0.0000000   0.0000000  -0.5000000), wk =   0.0060000
        k(    7) = (   0.0000000   0.1000000   0.1000000), wk =   0.0240000
        k(    8) = (   0.0000000   0.1000000   0.2000000), wk =   0.0480000
        k(    9) = (   0.0000000   0.1000000   0.3000000), wk =   0.0480000
        k(   10) = (   0.0000000   0.1000000   0.4000000), wk =   0.0480000
        k(   11) = (   0.0000000   0.1000000  -0.5000000), wk =   0.0240000
        k(   12) = (   0.0000000   0.2000000   0.2000000), wk =   0.0240000
        k(   13) = (   0.0000000   0.2000000   0.3000000), wk =   0.0480000
        k(   14) = (   0.0000000   0.2000000   0.4000000), wk =   0.0480000
        k(   15) = (   0.0000000   0.2000000  -0.5000000), wk =   0.0240000
        k(   16) = (   0.0000000   0.3000000   0.3000000), wk =   0.0240000
        k(   17) = (   0.0000000   0.3000000   0.4000000), wk =   0.0480000
        k(   18) = (   0.0000000   0.3000000  -0.5000000), wk =   0.0240000
        k(   19) = (   0.0000000   0.4000000   0.4000000), wk =   0.0240000
        k(   20) = (   0.0000000   0.4000000  -0.5000000), wk =   0.0240000
        k(   21) = (   0.0000000  -0.5000000  -0.5000000), wk =   0.0060000
        k(   22) = (   0.1000000   0.1000000   0.1000000), wk =   0.0160000
        k(   23) = (   0.1000000   0.1000000   0.2000000), wk =   0.0480000
        k(   24) = (   0.1000000   0.1000000   0.3000000), wk =   0.0480000
        k(   25) = (   0.1000000   0.1000000   0.4000000), wk =   0.0480000
        k(   26) = (   0.1000000   0.1000000  -0.5000000), wk =   0.0240000
        k(   27) = (   0.1000000   0.2000000   0.2000000), wk =   0.0480000
        k(   28) = (   0.1000000   0.2000000   0.3000000), wk =   0.0960000
        k(   29) = (   0.1000000   0.2000000   0.4000000), wk =   0.0960000
        k(   30) = (   0.1000000   0.2000000  -0.5000000), wk =   0.0480000
        k(   31) = (   0.1000000   0.3000000   0.3000000), wk =   0.0480000
        k(   32) = (   0.1000000   0.3000000   0.4000000), wk =   0.0960000
        k(   33) = (   0.1000000   0.3000000  -0.5000000), wk =   0.0480000
        k(   34) = (   0.1000000   0.4000000   0.4000000), wk =   0.0480000
        k(   35) = (   0.1000000   0.4000000  -0.5000000), wk =   0.0480000
        k(   36) = (   0.1000000  -0.5000000  -0.5000000), wk =   0.0120000
        k(   37) = (   0.2000000   0.2000000   0.2000000), wk =   0.0160000
        k(   38) = (   0.2000000   0.2000000   0.3000000), wk =   0.0480000
        k(   39) = (   0.2000000   0.2000000   0.4000000), wk =   0.0480000
        k(   40) = (   0.2000000   0.2000000  -0.5000000), wk =   0.0240000
        k(   41) = (   0.2000000   0.3000000   0.3000000), wk =   0.0480000
        k(   42) = (   0.2000000   0.3000000   0.4000000), wk =   0.0960000
        k(   43) = (   0.2000000   0.3000000  -0.5000000), wk =   0.0480000
        k(   44) = (   0.2000000   0.4000000   0.4000000), wk =   0.0480000
        k(   45) = (   0.2000000   0.4000000  -0.5000000), wk =   0.0480000
        k(   46) = (   0.2000000  -0.5000000  -0.5000000), wk =   0.0120000
        k(   47) = (   0.3000000   0.3000000   0.3000000), wk =   0.0160000
        k(   48) = (   0.3000000   0.3000000   0.4000000), wk =   0.0480000
        k(   49) = (   0.3000000   0.3000000  -0.5000000), wk =   0.0240000
        k(   50) = (   0.3000000   0.4000000   0.4000000), wk =   0.0480000
        k(   51) = (   0.3000000   0.4000000  -0.5000000), wk =   0.0480000
        k(   52) = (   0.3000000  -0.5000000  -0.5000000), wk =   0.0120000
        k(   53) = (   0.4000000   0.4000000   0.4000000), wk =   0.0160000
        k(   54) = (   0.4000000   0.4000000  -0.5000000), wk =   0.0240000
        k(   55) = (   0.4000000  -0.5000000  -0.5000000), wk =   0.0120000
        k(   56) = (  -0.5000000  -0.5000000  -0.5000000), wk =   0.0020000

     Dense  grid:    23031 G-vectors     FFT dimensions: (  36,  36,  36)

     Smooth grid:     5743 G-vectors     FFT dimensions: (  24,  24,  24)

     Estimated max dynamical RAM per process >      27.17 MB

     Estimated total dynamical RAM >     108.68 MB

     Check: negative core charge=   -0.000030

     Initial potential from superposition of free atoms

     starting charge      26.9995, renormalised to      28.0000

     negative rho (up, down):  8.334E-04 0.000E+00
     Starting wfcs are   23 randomized atomic wfcs
     Checking if some PAW data can be deallocated... 

     total cpu time spent up to now is        0.7 secs

     Self-consistent Calculation

     iteration #  1     ecut=    40.00 Ry     beta= 0.70
     Davidson diagonalization with overlap
     ethr =  1.00E-02,  avg # of iterations =  2.2

     negative rho (up, down):  6.262E-04 0.000E+00

     total cpu time spent up to now is        1.3 secs

     total energy              =    -434.63761587 Ry
     estimated scf accuracy    <      17.66181912 Ry

     iteration #  2     ecut=    40.00 Ry     beta= 0.70
     Davidson diagonalization with overlap
     ethr =  1.00E-02,  avg # of iterations =  4.6

     negative rho (up, down):  1.666E-04 0.000E+00

     total cpu time spent up to now is        2.2 secs

     total energy              =    -449.07381854 Ry
     estimated scf accuracy    <      63.27603231 Ry

     iteration #  3     ecut=    40.00 Ry     beta= 0.70
     Davidson diagonalization with overlap
     ethr =  1.00E-02,  avg # of iterations =  2.9

     negative rho (up, down):  3.807E-04 0.000E+00

     total cpu time spent up to now is        2.8 secs

     total energy              =    -448.50571971 Ry
     estimated scf accuracy    <      17.07466415 Ry

     iteration #  4     ecut=    40.00 Ry     beta= 0.70
     Davidson diagonalization with overlap
     ethr =  1.00E-02,  avg # of iterations =  2.2

     negative rho (up, down):  4.045E-04 0.000E+00

     total cpu time spent up to now is        3.4 secs

     total energy              =    -449.06090690 Ry
     estimated scf accuracy    <       4.95029802 Ry

     iteration #  5     ecut=    40.00 Ry     beta= 0.70
     Davidson diagonalization with overlap
     ethr =  1.00E-02,  avg # of iterations =  1.0

     negative rho (up, down):  4.020E-04 0.000E+00

     total cpu time spent up to now is        3.9 secs

     total energy              =    -449.08148722 Ry
     estimated scf accuracy    <       4.65062916 Ry

     iteration #  6     ecut=    40.00 Ry     beta= 0.70
     Davidson diagonalization with overlap
     ethr =  1.00E-02,  avg # of iterations =  1.0

     negative rho (up, down):  5.704E-04 0.000E+00

     total cpu time spent up to now is        4.4 secs

     total energy              =    -448.34142703 Ry
     estimated scf accuracy    <       4.52958276 Ry

     iteration #  7     ecut=    40.00 Ry     beta= 0.70
     Davidson diagonalization with overlap
     ethr =  1.00E-02,  avg # of iterations =  1.4

     negative rho (up, down):  6.024E-04 0.000E+00

     total cpu time spent up to now is        4.9 secs

     total energy              =    -448.49622957 Ry
     estimated scf accuracy    <       0.46734422 Ry

     iteration #  8     ecut=    40.00 Ry     beta= 0.70
     Davidson diagonalization with overlap
     ethr =  1.67E-03,  avg # of iterations =  2.5

     negative rho (up, down):  7.679E-04 0.000E+00

     total cpu time spent up to now is        5.5 secs

     total energy              =    -448.41907262 Ry
     estimated scf accuracy    <       0.24512599 Ry

     iteration #  9     ecut=    40.00 Ry     beta= 0.70
     Davidson diagonalization with overlap
     ethr =  8.75E-04,  avg # of iterations =  4.6

     negative rho (up, down):  7.095E-04 0.000E+00

     total cpu time spent up to now is        6.2 secs

     total energy              =    -448.47931706 Ry
     estimated scf accuracy    <       1.41657865 Ry

     iteration # 10     ecut=    40.00 Ry     beta= 0.70
     Davidson diagonalization with overlap
     ethr =  8.75E-04,  avg # of iterations =  2.1

     negative rho (up, down):  7.040E-04 0.000E+00

     total cpu time spent up to now is        6.7 secs

     total energy              =    -448.54313302 Ry
     estimated scf accuracy    <       0.20259481 Ry

     iteration # 11     ecut=    40.00 Ry     beta= 0.70
     Davidson diagonalization with overlap
     ethr =  7.24E-04,  avg # of iterations =  2.1

     negative rho (up, down):  6.661E-04 0.000E+00

     total cpu time spent up to now is        7.3 secs

     total energy              =    -448.49541173 Ry
     estimated scf accuracy    <       1.51970905 Ry

     iteration # 12     ecut=    40.00 Ry     beta= 0.70
     Davidson diagonalization with overlap
     ethr =  7.24E-04,  avg # of iterations =  1.4

     negative rho (up, down):  6.108E-04 0.000E+00

     total cpu time spent up to now is        7.8 secs

     total energy              =    -448.43126211 Ry
     estimated scf accuracy    <       0.38015439 Ry

     iteration # 13     ecut=    40.00 Ry     beta= 0.70
     Davidson diagonalization with overlap
     ethr =  7.24E-04,  avg # of iterations =  3.5

     negative rho (up, down):  6.058E-04 0.000E+00

     total cpu time spent up to now is        8.4 secs

     total energy              =    -448.55452155 Ry
     estimated scf accuracy    <       0.75160456 Ry

     iteration # 14     ecut=    40.00 Ry     beta= 0.70
     Davidson diagonalization with overlap
     ethr =  7.24E-04,  avg # of iterations =  1.1

     negative rho (up, down):  5.565E-04 0.000E+00

     total cpu time spent up to now is        8.9 secs

     total energy              =    -448.75943717 Ry
     estimated scf accuracy    <       0.65920205 Ry

     iteration # 15     ecut=    40.00 Ry     beta= 0.70
     Davidson diagonalization with overlap
     ethr =  7.24E-04,  avg # of iterations =  3.1

     negative rho (up, down):  6.442E-04 0.000E+00

     total cpu time spent up to now is        9.5 secs

     total energy              =    -448.21409473 Ry
     estimated scf accuracy    <       3.71967072 Ry

     iteration # 16     ecut=    40.00 Ry     beta= 0.70
     Davidson diagonalization with overlap
     ethr =  7.24E-04,  avg # of iterations =  4.4

     negative rho (up, down):  6.655E-04 0.000E+00

     total cpu time spent up to now is       10.2 secs

     total energy              =    -448.48644902 Ry
     estimated scf accuracy    <       0.10858085 Ry

     iteration # 17     ecut=    40.00 Ry     beta= 0.70
     Davidson diagonalization with overlap
     ethr =  3.88E-04,  avg # of iterations =  1.7

     negative rho (up, down):  6.966E-04 0.000E+00

     total cpu time spent up to now is       10.7 secs

     total energy              =    -448.49651487 Ry
     estimated scf accuracy    <       0.02499892 Ry

     iteration # 18     ecut=    40.00 Ry     beta= 0.70
     Davidson diagonalization with overlap
     ethr =  8.93E-05,  avg # of iterations =  1.5

     negative rho (up, down):  7.180E-04 0.000E+00

     total cpu time spent up to now is       11.2 secs

     total energy              =    -448.50030547 Ry
     estimated scf accuracy    <       0.00166179 Ry

     iteration # 19     ecut=    40.00 Ry     beta= 0.70
     Davidson diagonalization with overlap
     ethr =  5.93E-06,  avg # of iterations =  4.5

     negative rho (up, down):  7.145E-04 0.000E+00

     total cpu time spent up to now is       12.0 secs

     total energy              =    -448.50101050 Ry
     estimated scf accuracy    <       0.03470797 Ry

     iteration # 20     ecut=    40.00 Ry     beta= 0.70
     Davidson diagonalization with overlap
     ethr =  5.93E-06,  avg # of iterations =  1.0

     negative rho (up, down):  6.783E-04 0.000E+00

     total cpu time spent up to now is       12.5 secs

     total energy              =    -448.49419416 Ry
     estimated scf accuracy    <       0.02534706 Ry

     iteration # 21     ecut=    40.00 Ry     beta= 0.70
     Davidson diagonalization with overlap
     ethr =  5.93E-06,  avg # of iterations =  5.1

     negative rho (up, down):  6.864E-04 0.000E+00

     total cpu time spent up to now is       13.3 secs

     total energy              =    -448.49761525 Ry
     estimated scf accuracy    <       0.01772477 Ry

     iteration # 22     ecut=    40.00 Ry     beta= 0.70
     Davidson diagonalization with overlap
     ethr =  5.93E-06,  avg # of iterations =  3.8

     negative rho (up, down):  6.862E-04 0.000E+00

     total cpu time spent up to now is       13.9 secs

     total energy              =    -448.49868341 Ry
     estimated scf accuracy    <       0.00005084 Ry

     iteration # 23     ecut=    40.00 Ry     beta= 0.70
     Davidson diagonalization with overlap
     ethr =  1.82E-07,  avg # of iterations =  2.9

     negative rho (up, down):  6.868E-04 0.000E+00

     total cpu time spent up to now is       14.5 secs

     total energy              =    -448.49867948 Ry
     estimated scf accuracy    <       0.00005105 Ry

     iteration # 24     ecut=    40.00 Ry     beta= 0.70
     Davidson diagonalization with overlap
     ethr =  1.82E-07,  avg # of iterations =  2.3

     negative rho (up, down):  6.847E-04 0.000E+00

     total cpu time spent up to now is       15.0 secs

     total energy              =    -448.49868434 Ry
     estimated scf accuracy    <       0.00003346 Ry

     iteration # 25     ecut=    40.00 Ry     beta= 0.70
     Davidson diagonalization with overlap
     ethr =  1.19E-07,  avg # of iterations =  1.1

     negative rho (up, down):  6.841E-04 0.000E+00

     total cpu time spent up to now is       15.5 secs

     total energy              =    -448.49868993 Ry
     estimated scf accuracy    <       0.00001395 Ry

     iteration # 26     ecut=    40.00 Ry     beta= 0.70
     Davidson diagonalization with overlap
     ethr =  4.98E-08,  avg # of iterations =  1.5

     negative rho (up, down):  6.842E-04 0.000E+00

     total cpu time spent up to now is       16.1 secs

     total energy              =    -448.49868892 Ry
     estimated scf accuracy    <       0.00002137 Ry

     iteration # 27     ecut=    40.00 Ry     beta= 0.70
     Davidson diagonalization with overlap
     ethr =  4.98E-08,  avg # of iterations =  1.0

     negative rho (up, down):  6.841E-04 0.000E+00

     total cpu time spent up to now is       16.6 secs

     total energy              =    -448.49868916 Ry
     estimated scf accuracy    <       0.00000296 Ry

     iteration # 28     ecut=    40.00 Ry     beta= 0.70
     Davidson diagonalization with overlap
     ethr =  1.06E-08,  avg # of iterations =  1.1

     negative rho (up, down):  6.841E-04 0.000E+00

     total cpu time spent up to now is       17.0 secs

     total energy              =    -448.49868931 Ry
     estimated scf accuracy    <       0.00000005 Ry

     iteration # 29     ecut=    40.00 Ry     beta= 0.70
     Davidson diagonalization with overlap
     ethr =  1.93E-10,  avg # of iterations =  4.5

     negative rho (up, down):  6.841E-04 0.000E+00

     total cpu time spent up to now is       17.8 secs

     total energy              =    -448.49868935 Ry
     estimated scf accuracy    <       0.00000006 Ry

     iteration # 30     ecut=    40.00 Ry     beta= 0.70
     Davidson diagonalization with overlap
     ethr =  1.93E-10,  avg # of iterations =  1.1

     negative rho (up, down):  6.841E-04 0.000E+00

     total cpu time spent up to now is       18.3 secs

     total energy              =    -448.49868935 Ry
     estimated scf accuracy    <       0.00000005 Ry

     iteration # 31     ecut=    40.00 Ry     beta= 0.70
     Davidson diagonalization with overlap
     ethr =  1.66E-10,  avg # of iterations =  1.2

     negative rho (up, down):  6.841E-04 0.000E+00

     total cpu time spent up to now is       18.8 secs

     End of self-consistent calculation

          k = 0.0000 0.0000 0.0000 (   739 PWs)   bands (ev):

   -69.1917 -39.0745 -35.1730 -35.1730 -35.1730 -15.1735 -15.1735 -15.1735
    10.1987  13.8900  13.8900  16.6916  16.6916  16.6916  19.0327  19.0327
    20.9884  20.9884

          k = 0.0000 0.0000 0.1000 (   743 PWs)   bands (ev):

   -69.1914 -39.0719 -35.1781 -35.1737 -35.1737 -15.2089 -15.1714 -15.1714
    10.4081  13.9907  14.0039  16.6764  16.6764  16.7371  18.9050  19.0814
    20.7034  20.7034

          k = 0.0000 0.0000 0.2000 (   739 PWs)   bands (ev):

   -69.1905 -39.0652 -35.1748 -35.1694 -35.1694 -15.3010 -15.1660 -15.1660
    11.0237  14.2839  14.2941  16.6437  16.6437  16.8624  18.5390  19.1870
    20.0590  20.0590

          k = 0.0000 0.0000 0.3000 (   731 PWs)   bands (ev):

   -69.1894 -39.0569 -35.1764 -35.1591 -35.1591 -15.4133 -15.1594 -15.1594
    11.9791  14.6007  14.7380  16.6204  16.6204  17.0326  17.9911  19.1909
    19.3865  19.3865

          k = 0.0000 0.0000 0.4000 (   735 PWs)   bands (ev):

   -69.1886 -39.0502 -35.1916 -35.1561 -35.1561 -15.5030 -15.1540 -15.1540
    13.0826  14.6516  15.2688  16.6211  16.6211  17.1864  17.3810  18.8913
    18.8913  18.8966

          k = 0.0000 0.0000-0.5000 (   708 PWs)   bands (ev):

   -69.1882 -39.0476 -35.1739 -35.1355 -35.1355 -15.5369 -15.1520 -15.1520
    13.9208  14.3581  15.5823  16.6282  16.6282  17.0369  17.2506  18.6547
    18.7187  18.7187

          k = 0.0000 0.1000 0.1000 (   740 PWs)   bands (ev):

   -69.1911 -39.0691 -35.1765 -35.1740 -35.1662 -15.2103 -15.2026 -15.1693
    10.6169  14.0880  14.1163  16.5773  16.6501  16.8491  18.8913  19.0474
    20.3952  20.4201

          k = 0.0000 0.1000 0.2000 (   731 PWs)   bands (ev):

   -69.1902 -39.0619 -35.1704 -35.1659 -35.1598 -15.2978 -15.1996 -15.1635
    11.2208  14.3470  14.4236  16.4844  16.5882  16.9735  18.6196  19.1419
    19.8032  19.8562

          k = 0.0000 0.1000 0.3000 (   733 PWs)   bands (ev):

   -69.1891 -39.0530 -35.1824 -35.1620 -35.1592 -15.4086 -15.1918 -15.1565
    12.1340  14.6558  14.8315  16.4439  16.5237  17.0325  18.1696  19.0057
    19.3836  19.3914

          k = 0.0000 0.1000 0.4000 (   733 PWs)   bands (ev):

   -69.1883 -39.0458 -35.1868 -35.1643 -35.1559 -15.4971 -15.1854 -15.1508
    13.1902  14.7018  15.3031  16.4669  16.4675  16.9851  17.7093  18.5559
    19.1358  19.2604

          k = 0.0000 0.1000-0.5000 (   728 PWs)   bands (ev):

   -69.1879 -39.0431 -35.1849 -35.1605 -35.1513 -15.5306 -15.1830 -15.1486
    13.9514  14.3959  15.5795  16.4116  16.5006  16.9267  17.5117  18.3508
    19.0797  19.1326

          k = 0.0000 0.2000 0.2000 (   726 PWs)   bands (ev):

   -69.1893 -39.0534 -35.1727 -35.1595 -35.1594 -15.2983 -15.2779 -15.1570
    11.7712  14.4981  14.7753  16.2791  16.4745  17.0079  18.7157  19.1038
    19.2576  19.5827

          k = 0.0000 0.2000 0.3000 (   737 PWs)   bands (ev):

   -69.1883 -39.0429 -35.1871 -35.1732 -35.1656 -15.3965 -15.2757 -15.1490
    12.5545  14.6395  15.2272  16.1486  16.4027  16.8397  18.5410  18.7364
    19.2970  19.5172

          k = 0.0000 0.2000 0.4000 (   736 PWs)   bands (ev):

   -69.1874 -39.0344 -35.1908 -35.1790 -35.1607 -15.4817 -15.2670 -15.1424
    13.3915  14.6007  15.6244  16.1338  16.4795  16.5631  18.2390  18.4409
    19.4839  19.6435

          k = 0.0000 0.2000-0.5000 (   728 PWs)   bands (ev):

   -69.1871 -39.0312 -35.1851 -35.1758 -35.1531 -15.5140 -15.2635 -15.1399
    13.9219  14.3935  15.7839  16.1951  16.3845  16.6064  18.1838  18.2156
    19.5532  19.7448

          k = 0.0000 0.3000 0.3000 (   734 PWs)   bands (ev):

   -69.1873 -39.0304 -35.1862 -35.1858 -35.1623 -15.3899 -15.3697 -15.1396
    13.0738  14.5292  15.7941  15.9159  16.4772  16.4790  18.6169  18.8622
    19.1972  19.8225

          k = 0.0000 0.3000 0.4000 (   729 PWs)   bands (ev):

   -69.1864 -39.0202 -35.1914 -35.1835 -35.1577 -15.4626 -15.3665 -15.1320
    13.5161  14.3436  15.8174  16.1277  16.2668  16.9165  18.4399  18.8843
    19.4728  20.1684

          k = 0.0000 0.3000-0.5000 (   724 PWs)   bands (ev):

   -69.1861 -39.0163 -35.1894 -35.1794 -35.1557 -15.4934 -15.3619 -15.1291
    13.7160  14.2168  15.8587  15.9220  16.4193  17.4130  18.1286  18.8838
    19.7334  20.3663

          k = 0.0000 0.4000 0.4000 (   736 PWs)   bands (ev):

   -69.1856 -39.0087 -35.2021 -35.1936 -35.1665 -15.4504 -15.4429 -15.1236
    13.5136  14.1237  15.6289  15.7915  17.0071  17.5100  18.7495  19.2337
    19.3040  20.5845

          k = 0.0000 0.4000-0.5000 (   730 PWs)   bands (ev):

   -69.1852 -39.0043 -35.1947 -35.1945 -35.1621 -15.4768 -15.4405 -15.1204
    13.4986  14.0415  15.6112  15.6236  17.2904  18.1366  18.4765  19.3604
    19.4934  20.7993

          k = 0.0000-0.5000-0.5000 (   720 PWs)   bands (ev):

   -69.1849 -38.9997 -35.1924 -35.1924 -35.1494 -15.4703 -15.4703 -15.1170
    13.4143  13.9740  15.5215  15.5215  17.7959  18.2357  19.1529  19.1529
    19.4800  20.9555

          k = 0.1000 0.1000 0.1000 (   742 PWs)   bands (ev):

   -69.1907 -39.0662 -35.1748 -35.1748 -35.1716 -15.2108 -15.2005 -15.2005
    10.8204  14.2048  14.2048  16.5484  16.5484  16.9311  18.9574  18.9574
    19.9409  20.6784

          k = 0.1000 0.1000 0.2000 (   730 PWs)   bands (ev):

   -69.1899 -39.0586 -35.1723 -35.1700 -35.1552 -15.2946 -15.1989 -15.1950
    11.4181  14.4602  14.5004  16.4211  16.4730  16.9890  18.7004  19.1017
    19.4895  20.0339

          k = 0.1000 0.1000 0.3000 (   726 PWs)   bands (ev):

   -69.1888 -39.0492 -35.1774 -35.1606 -35.1562 -15.4040 -15.1895 -15.1882
    12.3023  14.7952  14.8478  16.3709  16.3745  16.9214  18.3239  18.9962
    19.3793  19.4419

          k = 0.1000 0.1000 0.4000 (   739 PWs)   bands (ev):

   -69.1880 -39.0416 -35.1919 -35.1690 -35.1663 -15.4916 -15.1827 -15.1819
    13.2981  14.7914  15.2838  16.2388  16.4667  16.8058  17.9460  18.6523
    18.9068  19.6464

          k = 0.1000 0.1000-0.5000 (   740 PWs)   bands (ev):

   -69.1876 -39.0386 -35.1946 -35.1728 -35.1627 -15.5248 -15.1806 -15.1789
    14.0144  14.4651  15.5396  16.1264  16.6124  16.7269  17.7760  18.4104
    18.7415  19.7827

          k = 0.1000 0.2000 0.2000 (   728 PWs)   bands (ev):

   -69.1890 -39.0499 -35.1731 -35.1669 -35.1612 -15.2940 -15.2758 -15.1899
    11.9567  14.6325  14.8279  16.2332  16.3448  16.8596  18.8030  19.0789
    19.2912  19.7533

          k = 0.1000 0.2000 0.3000 (   731 PWs)   bands (ev):

   -69.1880 -39.0391 -35.1824 -35.1726 -35.1618 -15.3923 -15.2727 -15.1812
    12.7275  14.7939  15.2332  16.0948  16.2615  16.6075  18.6636  18.9124
    19.2931  19.6486

          k = 0.1000 0.2000 0.4000 (   735 PWs)   bands (ev):

   -69.1871 -39.0303 -35.1917 -35.1767 -35.1639 -15.4770 -15.2641 -15.1741
    13.5432  14.7504  15.5275  16.0161  16.3409  16.5026  18.4358  18.5265
    19.1213  20.1230

          k = 0.1000 0.2000-0.5000 (   736 PWs)   bands (ev):

   -69.1868 -39.0270 -35.1921 -35.1790 -35.1650 -15.5092 -15.2607 -15.1713
    14.0499  14.5212  15.6483  15.9738  16.3372  16.6689  18.2455  18.3766
    18.9836  20.5138

          k = 0.1000 0.3000 0.3000 (   734 PWs)   bands (ev):

   -69.1869 -39.0265 -35.1892 -35.1872 -35.1616 -15.3854 -15.3675 -15.1717
    13.2620  14.6826  15.7867  15.8730  16.2542  16.3140  18.7102  19.0230
    19.1595  20.0544

          k = 0.1000 0.3000 0.4000 (   729 PWs)   bands (ev):

   -69.1861 -39.0163 -35.1920 -35.1845 -35.1595 -15.4590 -15.3638 -15.1639
    13.6951  14.4937  15.7690  15.9501  16.2616  16.7526  18.4697  18.9850
    19.2299  20.6010

          k = 0.1000 0.3000-0.5000 (   732 PWs)   bands (ev):

   -69.1858 -39.0125 -35.1945 -35.1876 -35.1641 -15.4899 -15.3594 -15.1609
    13.8786  14.3677  15.7846  15.8162  16.3695  17.2564  18.1504  19.0152
    19.1613  20.7370

          k = 0.1000 0.4000 0.4000 (   732 PWs)   bands (ev):

   -69.1853 -39.0050 -35.1942 -35.1942 -35.1687 -15.4474 -15.4406 -15.1556
    13.6922  14.2763  15.5993  15.7310  16.9475  17.3124  18.5808  18.9813
    19.3995  20.8506

          k = 0.1000 0.4000-0.5000 (   732 PWs)   bands (ev):

   -69.1849 -39.0007 -35.1970 -35.1953 -35.1695 -15.4743 -15.4383 -15.1525
    13.6717  14.1961  15.5788  15.5889  17.2074  18.1041  18.1319  18.9731
    19.4669  20.9567

          k = 0.1000-0.5000-0.5000 (   728 PWs)   bands (ev):

   -69.1846 -38.9962 -35.1960 -35.1960 -35.1655 -15.4682 -15.4682 -15.1493
    13.5901  14.1290  15.4981  15.4981  17.7995  18.2375  18.5435  18.5435
    19.5844  21.6881

          k = 0.2000 0.2000 0.2000 (   736 PWs)   bands (ev):

   -69.1882 -39.0405 -35.1798 -35.1798 -35.1693 -15.2878 -15.2702 -15.2702
    12.4689  14.9714  14.9714  16.1143  16.1143  16.4687  19.0035  19.0035
    19.5430  19.9969

          k = 0.2000 0.2000 0.3000 (   729 PWs)   bands (ev):

   -69.1871 -39.0289 -35.1798 -35.1735 -35.1716 -15.3814 -15.2666 -15.2631
    13.1974  15.1768  15.2500  15.9647  15.9963  16.1637  18.8901  19.0381
    19.3845  20.0035

          k = 0.2000 0.2000 0.4000 (   743 PWs)   bands (ev):

   -69.1863 -39.0195 -35.1974 -35.1859 -35.1800 -15.4648 -15.2575 -15.2553
    13.9010  15.0292  15.3814  15.8192  16.0960  16.3686  18.6288  18.7730
    18.9690  20.5144

          k = 0.2000 0.2000-0.5000 (   738 PWs)   bands (ev):

   -69.1860 -39.0160 -35.1929 -35.1836 -35.1772 -15.4964 -15.2553 -15.2508
    14.3104  14.7493  15.4970  15.7329  16.1714  16.6785  18.2614  18.7218
    18.8283  20.6208

          k = 0.2000 0.3000 0.3000 (   734 PWs)   bands (ev):

   -69.1861 -39.0164 -35.1923 -35.1831 -35.1744 -15.3736 -15.3618 -15.2549
    13.7772  15.0860  15.7613  15.7728  15.8247  15.9390  18.8174  19.0147
    19.4512  20.2240

          k = 0.2000 0.3000 0.4000 (   728 PWs)   bands (ev):

   -69.1853 -39.0062 -35.1894 -35.1835 -35.1729 -15.4496 -15.3567 -15.2467
    14.1878  14.8586  15.6566  15.6766  16.0724  16.4441  18.5127  18.7943
    19.4240  20.5523

          k = 0.2000 0.3000-0.5000 (   736 PWs)   bands (ev):

   -69.1850 -39.0023 -35.1984 -35.1896 -35.1780 -15.4806 -15.3528 -15.2435
    14.3182  14.7265  15.6202  15.6403  16.1777  16.9147  18.1556  18.6929
    19.3932  20.7245

          k = 0.2000 0.4000 0.4000 (   728 PWs)   bands (ev):

   -69.1845 -38.9954 -35.1942 -35.1902 -35.1735 -15.4394 -15.4349 -15.2389
    14.1963  14.6613  15.5317  15.6122  16.7353  16.7718  18.4400  18.5322
    19.7307  20.8120

          k = 0.2000 0.4000-0.5000 (   722 PWs)   bands (ev):

   -69.1841 -38.9912 -35.1940 -35.1859 -35.1698 -15.4676 -15.4325 -15.2359
    14.1643  14.5924  15.5125  15.5175  16.9008  17.4001  18.0761  18.4742
    19.7969  21.0133

          k = 0.2000-0.5000-0.5000 (   724 PWs)   bands (ev):

   -69.1838 -38.9870 -35.1958 -35.1958 -35.1677 -15.4627 -15.4627 -15.2330
    14.0912  14.5338  15.4490  15.4490  17.6254  17.6254  17.8089  18.2269
    19.9048  21.2654

          k = 0.3000 0.3000 0.3000 (   735 PWs)   bands (ev):

   -69.1851 -39.0038 -35.1955 -35.1852 -35.1852 -15.3609 -15.3547 -15.3547
    14.4441  15.3175  15.6511  15.6511  15.7123  15.7123  18.7625  18.7625
    20.0047  20.0047

          k = 0.3000 0.3000 0.4000 (   723 PWs)   bands (ev):

   -69.1843 -38.9936 -35.1859 -35.1819 -35.1808 -15.4381 -15.3490 -15.3468
    14.7853  15.0779  15.5795  15.6394  15.7864  16.2664  18.4209  18.5570
    19.9354  20.5606

          k = 0.3000 0.3000-0.5000 (   740 PWs)   bands (ev):

   -69.1840 -38.9897 -35.2043 -35.1919 -35.1908 -15.4689 -15.3468 -15.3423
    14.7714  14.9920  15.5685  15.5815  15.9558  16.6645  18.0801  18.4780
    19.9209  20.8040

          k = 0.3000 0.4000 0.4000 (   726 PWs)   bands (ev):

   -69.1835 -38.9834 -35.1954 -35.1862 -35.1851 -15.4296 -15.4280 -15.3406
    14.8864  15.0705  15.4778  15.6138  16.1886  16.3826  18.2357  18.3295
    20.2699  20.8359

          k = 0.3000 0.4000-0.5000 (   724 PWs)   bands (ev):

   -69.1832 -38.9795 -35.1935 -35.1919 -35.1809 -15.4594 -15.4252 -15.3378
    14.8433  15.0283  15.4910  15.5102  16.3878  16.7478  17.9754  18.2715
    20.3280  21.0680

          k = 0.3000-0.5000-0.5000 (   724 PWs)   bands (ev):

   -69.1829 -38.9756 -35.1914 -35.1914 -35.1887 -15.4558 -15.4558 -15.3353
    14.8183  15.0254  15.4232  15.4232  16.8340  16.8340  17.8211  18.1508
    20.4320  21.2911

          k = 0.4000 0.4000 0.4000 (   705 PWs)   bands (ev):

   -69.1826 -38.9737 -35.1839 -35.1745 -35.1745 -15.4223 -15.4223 -15.4210
    15.1391  15.4907  15.4907  15.8376  16.0268  16.0268  18.1105  18.1105
    20.8677  20.8677

          k = 0.4000 0.4000-0.5000 (   710 PWs)   bands (ev):

   -69.1824 -38.9700 -35.1891 -35.1803 -35.1790 -15.4527 -15.4202 -15.4184
    15.2746  15.3033  15.5426  15.8295  15.9628  16.3417  17.9143  18.0752
    20.8810  21.1537

          k = 0.4000-0.5000-0.5000 (   704 PWs)   bands (ev):

   -69.1821 -38.9663 -35.1853 -35.1853 -35.1715 -15.4502 -15.4502 -15.4171
    15.4084  15.4717  15.4717  15.6154  16.2527  16.2527  17.8310  17.9790
    21.0288  21.3120

          k =-0.5000-0.5000-0.5000 (   720 PWs)   bands (ev):

   -69.1818 -38.9628 -35.1935 -35.1935 -35.1935 -15.4481 -15.4481 -15.4481
    15.5494  15.5494  15.5494  15.9720  15.9720  15.9720  17.8347  17.8347
    21.3199  21.3200

     the Fermi energy is    17.7752 ev

!    total energy              =    -448.49868935 Ry
     estimated scf accuracy    <          3.0E-10 Ry
     smearing contrib. (-TS)   =      -0.00001836 Ry
     internal energy E=F+TS    =    -448.49867099 Ry

     The total energy is F=E-TS. E is the sum of the following terms:
     one-electron contribution =    -151.37336161 Ry
     hartree contribution      =      91.71748381 Ry
     xc contribution           =     -52.88763761 Ry
     ewald contribution        =    -259.82070277 Ry
     one-center paw contrib.   =     -76.13445281 Ry

     convergence has been achieved in  31 iterations

     negative rho (up, down):  6.841E-04 0.000E+00

     Forces acting on atoms (cartesian axes, Ry/au):

     atom    1 type  1   force =     0.00000000    0.00000000    0.00000000
     atom    2 type  2   force =     0.00000000    0.00000000    0.00000000

     Total force =     0.000000     Total SCF correction =     0.000000


     Computing stress (Cartesian axis) and pressure


     negative rho (up, down):  6.841E-04 0.000E+00
          total   stress  (Ry/bohr**3)                   (kbar)     P=     -294.99
  -0.00200528   0.00000000   0.00000000         -294.99        0.00        0.00
   0.00000000  -0.00200528   0.00000000            0.00     -294.99        0.00
   0.00000000   0.00000000  -0.00200528            0.00        0.00     -294.99


     Writing all to output data dir ./out/TiFe1.save/ :
     XML data file, charge density, pseudopotentials, collected wavefunctions

     init_run     :      0.44s CPU      0.48s WALL (       1 calls)
     electrons    :     17.49s CPU     18.11s WALL (       1 calls)
     forces       :      0.10s CPU      0.10s WALL (       1 calls)
     stress       :      0.44s CPU      0.44s WALL (       1 calls)

     Called by init_run:
     wfcinit      :      0.16s CPU      0.17s WALL (       1 calls)
     potinit      :      0.10s CPU      0.12s WALL (       1 calls)
     hinit0       :      0.12s CPU      0.13s WALL (       1 calls)

     Called by electrons:
     c_bands      :     10.89s CPU     11.38s WALL (      31 calls)
     sum_band     :      2.44s CPU      2.52s WALL (      31 calls)
     v_of_rho     :      0.14s CPU      0.15s WALL (      32 calls)
     newd         :      1.10s CPU      1.11s WALL (      32 calls)
     PAW_pot      :      2.99s CPU      3.04s WALL (      32 calls)
     mix_rho      :      0.02s CPU      0.02s WALL (      31 calls)

     Called by c_bands:
     init_us_2    :      0.18s CPU      0.19s WALL (    3640 calls)
     cegterg      :     10.45s CPU     10.93s WALL (    1736 calls)

     Called by *egterg:
     cdiaghg      :      1.60s CPU      1.66s WALL (    5909 calls)
     h_psi        :      6.32s CPU      6.63s WALL (    5965 calls)
     s_psi        :      0.54s CPU      0.57s WALL (    5965 calls)
     g_psi        :      0.03s CPU      0.03s WALL (    4173 calls)

     Called by h_psi:
     h_psi:calbec :      0.65s CPU      0.69s WALL (    5965 calls)
     vloc_psi     :      5.09s CPU      5.32s WALL (    5965 calls)
     add_vuspsi   :      0.54s CPU      0.57s WALL (    5965 calls)

     General routines
     calbec       :      1.03s CPU      1.09s WALL (    8653 calls)
     fft          :      0.07s CPU      0.08s WALL (     439 calls)
     ffts         :      0.00s CPU      0.00s WALL (      63 calls)
     fftw         :      5.17s CPU      5.41s WALL (  183514 calls)
     interpolate  :      0.01s CPU      0.01s WALL (      32 calls)

     Parallel routines

     PWSCF        :     18.65s CPU     19.33s WALL


   This run was terminated on:   1: 1:27  30Oct2025            

=------------------------------------------------------------------------------=
   JOB DONE.
=------------------------------------------------------------------------------=
