
     Program PWSCF v.7.4.1 starts on 30Oct2025 at  1: 7:48 

     This program is part of the open-source Quantum ESPRESSO suite
     for quantum simulation of materials; please cite
         "P. Giannozzi et al., J. Phys.:Condens. Matter 21 395502 (2009);
         "P. Giannozzi et al., J. Phys.:Condens. Matter 29 465901 (2017);
         "P. Giannozzi et al., J. Chem. Phys. 152 154105 (2020);
          URL http://www.quantum-espresso.org", 
     in publications or presentations arising from this work. More details at
     http://www.quantum-espresso.org/quote

     Parallel version (MPI), running on     4 processors

     MPI processes distributed on     1 nodes
     4745 MiB available memory on the printing compute node when the environment starts

     Reading input from TiFe9.in

     Current dimensions of program PWSCF are:
     Max number of different atomic species (ntypx) = 10
     Max number of k-points (npk) =  40000
     Max angular momentum in pseudopotentials (lmaxx) =  4
     file Fe.pbe-spn-kjpaw_psl.0.2.1.UPF: wavefunction(s)  3D renormalized

     IMPORTANT: XC functional enforced from input :
     Exchange-correlation= PBE
                           (   1   4   3   4   0   0   0)
     Any further DFT definition will be discarded
     Please, verify this is what you really want

     Message from routine setup:
     using ibrav=0 with symmetry is DISCOURAGED, use correct ibrav instead

     R & G space division:  proc/nbgrp/npool/nimage =       4
     Subspace diagonalization in iterative solution of the eigenvalue problem:
     a serial algorithm will be used


     Parallelization info
     --------------------
     sticks:   dense  smooth     PW     G-vecs:    dense   smooth      PW
     Min         738     296     87                30070     7636    1235
     Max         740     297     88                30071     7639    1238
     Sum        2957    1185    349               120281    30551    4945

     Using Slab Decomposition



     bravais-lattice index     =            0
     lattice parameter (alat)  =       5.5533  a.u.
     unit-cell volume          =     171.2590 (a.u.)^3
     number of atoms/cell      =            2
     number of atomic types    =            2
     number of electrons       =        28.00
     number of Kohn-Sham states=           18
     kinetic-energy cutoff     =     120.0000  Ry
     charge density cutoff     =    1200.0000  Ry
     scf convergence threshold =      1.0E-08
     mixing beta               =       0.7000
     number of iterations used =            8  plain     mixing
     Exchange-correlation= PBE
                           (   1   4   3   4   0   0   0)

     celldm(1)=   5.553300  celldm(2)=   0.000000  celldm(3)=   0.000000
     celldm(4)=   0.000000  celldm(5)=   0.000000  celldm(6)=   0.000000

     crystal axes: (cart. coord. in units of alat)
               a(1) = (   1.000000   0.000000   0.000000 )  
               a(2) = (   0.000000   1.000000   0.000000 )  
               a(3) = (   0.000000   0.000000   1.000000 )  

     reciprocal axes: (cart. coord. in units 2 pi/alat)
               b(1) = (  1.000000  0.000000  0.000000 )  
               b(2) = (  0.000000  1.000000  0.000000 )  
               b(3) = (  0.000000  0.000000  1.000000 )  


     PseudoPot. # 1 for Fe read from file:
     /home/rafi/QE/qe-7.4.1/pseudo/Fe.pbe-spn-kjpaw_psl.0.2.1.UPF
     MD5 check sum: e86618425769142926afa95317d90200
     Pseudo is Projector augmented-wave + core cor, Zval = 16.0
     Generated using "atomic" code by A. Dal Corso  v.5.0.99 svn rev. 10869
     Shape of augmentation charge: PSQ
     Using radial grid of 1191 points,  6 beta functions with: 
                l(1) =   0
                l(2) =   0
                l(3) =   1
                l(4) =   1
                l(5) =   2
                l(6) =   2
     Q(r) pseudized with 0 coefficients 


     PseudoPot. # 2 for Ti read from file:
     /home/rafi/QE/qe-7.4.1/pseudo/ti_pbe_v1.4.uspp.F.UPF
     MD5 check sum: 88a00a6731bd790ddea75d31a80cb452
     Pseudo is Ultrasoft + core correction, Zval = 12.0
     Generated by new atomic code, or converted to UPF format
     Using radial grid of  851 points,  6 beta functions with: 
                l(1) =   0
                l(2) =   0
                l(3) =   1
                l(4) =   1
                l(5) =   2
                l(6) =   2
     Q(r) pseudized with  6 coefficients,  rinner =    1.000   1.000   1.000
                                                       1.000   1.000

     atomic species   valence    mass     pseudopotential
     Fe               16.00    55.84500     Fe( 1.00)
     Ti               12.00    47.86700     Ti( 1.00)

     48 Sym. Ops., with inversion, found



   Cartesian axes

     site n.     atom                  positions (alat units)
         1        Fe     tau(   1) = (   0.5000000   0.5000000   0.5000000  )
         2        Ti     tau(   2) = (   0.0000000   0.0000000   0.0000000  )

     number of k points=    56  Marzari-Vanderbilt smearing, width (Ry)=  0.0050
                       cart. coord. in units 2pi/alat
        k(    1) = (   0.0000000   0.0000000   0.0000000), wk =   0.0020000
        k(    2) = (   0.0000000   0.0000000   0.1000000), wk =   0.0120000
        k(    3) = (   0.0000000   0.0000000   0.2000000), wk =   0.0120000
        k(    4) = (   0.0000000   0.0000000   0.3000000), wk =   0.0120000
        k(    5) = (   0.0000000   0.0000000   0.4000000), wk =   0.0120000
        k(    6) = (   0.0000000   0.0000000  -0.5000000), wk =   0.0060000
        k(    7) = (   0.0000000   0.1000000   0.1000000), wk =   0.0240000
        k(    8) = (   0.0000000   0.1000000   0.2000000), wk =   0.0480000
        k(    9) = (   0.0000000   0.1000000   0.3000000), wk =   0.0480000
        k(   10) = (   0.0000000   0.1000000   0.4000000), wk =   0.0480000
        k(   11) = (   0.0000000   0.1000000  -0.5000000), wk =   0.0240000
        k(   12) = (   0.0000000   0.2000000   0.2000000), wk =   0.0240000
        k(   13) = (   0.0000000   0.2000000   0.3000000), wk =   0.0480000
        k(   14) = (   0.0000000   0.2000000   0.4000000), wk =   0.0480000
        k(   15) = (   0.0000000   0.2000000  -0.5000000), wk =   0.0240000
        k(   16) = (   0.0000000   0.3000000   0.3000000), wk =   0.0240000
        k(   17) = (   0.0000000   0.3000000   0.4000000), wk =   0.0480000
        k(   18) = (   0.0000000   0.3000000  -0.5000000), wk =   0.0240000
        k(   19) = (   0.0000000   0.4000000   0.4000000), wk =   0.0240000
        k(   20) = (   0.0000000   0.4000000  -0.5000000), wk =   0.0240000
        k(   21) = (   0.0000000  -0.5000000  -0.5000000), wk =   0.0060000
        k(   22) = (   0.1000000   0.1000000   0.1000000), wk =   0.0160000
        k(   23) = (   0.1000000   0.1000000   0.2000000), wk =   0.0480000
        k(   24) = (   0.1000000   0.1000000   0.3000000), wk =   0.0480000
        k(   25) = (   0.1000000   0.1000000   0.4000000), wk =   0.0480000
        k(   26) = (   0.1000000   0.1000000  -0.5000000), wk =   0.0240000
        k(   27) = (   0.1000000   0.2000000   0.2000000), wk =   0.0480000
        k(   28) = (   0.1000000   0.2000000   0.3000000), wk =   0.0960000
        k(   29) = (   0.1000000   0.2000000   0.4000000), wk =   0.0960000
        k(   30) = (   0.1000000   0.2000000  -0.5000000), wk =   0.0480000
        k(   31) = (   0.1000000   0.3000000   0.3000000), wk =   0.0480000
        k(   32) = (   0.1000000   0.3000000   0.4000000), wk =   0.0960000
        k(   33) = (   0.1000000   0.3000000  -0.5000000), wk =   0.0480000
        k(   34) = (   0.1000000   0.4000000   0.4000000), wk =   0.0480000
        k(   35) = (   0.1000000   0.4000000  -0.5000000), wk =   0.0480000
        k(   36) = (   0.1000000  -0.5000000  -0.5000000), wk =   0.0120000
        k(   37) = (   0.2000000   0.2000000   0.2000000), wk =   0.0160000
        k(   38) = (   0.2000000   0.2000000   0.3000000), wk =   0.0480000
        k(   39) = (   0.2000000   0.2000000   0.4000000), wk =   0.0480000
        k(   40) = (   0.2000000   0.2000000  -0.5000000), wk =   0.0240000
        k(   41) = (   0.2000000   0.3000000   0.3000000), wk =   0.0480000
        k(   42) = (   0.2000000   0.3000000   0.4000000), wk =   0.0960000
        k(   43) = (   0.2000000   0.3000000  -0.5000000), wk =   0.0480000
        k(   44) = (   0.2000000   0.4000000   0.4000000), wk =   0.0480000
        k(   45) = (   0.2000000   0.4000000  -0.5000000), wk =   0.0480000
        k(   46) = (   0.2000000  -0.5000000  -0.5000000), wk =   0.0120000
        k(   47) = (   0.3000000   0.3000000   0.3000000), wk =   0.0160000
        k(   48) = (   0.3000000   0.3000000   0.4000000), wk =   0.0480000
        k(   49) = (   0.3000000   0.3000000  -0.5000000), wk =   0.0240000
        k(   50) = (   0.3000000   0.4000000   0.4000000), wk =   0.0480000
        k(   51) = (   0.3000000   0.4000000  -0.5000000), wk =   0.0480000
        k(   52) = (   0.3000000  -0.5000000  -0.5000000), wk =   0.0120000
        k(   53) = (   0.4000000   0.4000000   0.4000000), wk =   0.0160000
        k(   54) = (   0.4000000   0.4000000  -0.5000000), wk =   0.0240000
        k(   55) = (   0.4000000  -0.5000000  -0.5000000), wk =   0.0120000
        k(   56) = (  -0.5000000  -0.5000000  -0.5000000), wk =   0.0020000

     Dense  grid:   120281 G-vectors     FFT dimensions: (  64,  64,  64)

     Smooth grid:    30551 G-vectors     FFT dimensions: (  40,  40,  40)

     Estimated max dynamical RAM per process >     130.93 MB

     Estimated total dynamical RAM >     523.72 MB

     Check: negative core charge=   -0.000002

     Initial potential from superposition of free atoms

     starting charge      26.9995, renormalised to      28.0000

     negative rho (up, down):  1.436E-03 0.000E+00
     Starting wfcs are   23 randomized atomic wfcs
     Checking if some PAW data can be deallocated... 

     total cpu time spent up to now is        1.9 secs

     Self-consistent Calculation

     iteration #  1     ecut=   120.00 Ry     beta= 0.70
     Davidson diagonalization with overlap
     ethr =  1.00E-02,  avg # of iterations =  2.2

     negative rho (up, down):  9.927E-05 0.000E+00

     total cpu time spent up to now is        5.1 secs

     total energy              =    -434.88904644 Ry
     estimated scf accuracy    <      17.46808847 Ry

     iteration #  2     ecut=   120.00 Ry     beta= 0.70
     Davidson diagonalization with overlap
     ethr =  1.00E-02,  avg # of iterations =  6.1

     negative rho (up, down):  3.295E-05 0.000E+00

     total cpu time spent up to now is       10.3 secs

     WARNING: integrated charge=    28.00013586, expected=    28.00000000

     total energy              =    -448.51940630 Ry
     estimated scf accuracy    <      66.08624002 Ry

     iteration #  3     ecut=   120.00 Ry     beta= 0.70
     Davidson diagonalization with overlap
     ethr =  1.00E-02,  avg # of iterations =  3.3

     negative rho (up, down):  2.333E-04 0.000E+00

     total cpu time spent up to now is       14.1 secs

     WARNING: integrated charge=    28.00001900, expected=    28.00000000

     total energy              =    -448.59432394 Ry
     estimated scf accuracy    <      16.76490305 Ry

     iteration #  4     ecut=   120.00 Ry     beta= 0.70
     Davidson diagonalization with overlap
     ethr =  1.00E-02,  avg # of iterations =  2.1

     negative rho (up, down):  2.559E-04 0.000E+00

     total cpu time spent up to now is       17.0 secs

     WARNING: integrated charge=    28.00002025, expected=    28.00000000

     total energy              =    -449.10779231 Ry
     estimated scf accuracy    <       4.85359856 Ry

     iteration #  5     ecut=   120.00 Ry     beta= 0.70
     Davidson diagonalization with overlap
     ethr =  1.00E-02,  avg # of iterations =  1.0

     negative rho (up, down):  2.795E-04 0.000E+00

     total cpu time spent up to now is       19.6 secs

     WARNING: integrated charge=    28.00002396, expected=    28.00000000

     total energy              =    -449.11771176 Ry
     estimated scf accuracy    <       4.39595129 Ry

     iteration #  6     ecut=   120.00 Ry     beta= 0.70
     Davidson diagonalization with overlap
     ethr =  1.00E-02,  avg # of iterations =  1.0

     negative rho (up, down):  1.125E-03 0.000E+00

     total cpu time spent up to now is       22.1 secs

     total energy              =    -447.87371186 Ry
     estimated scf accuracy    <       4.56904522 Ry

     iteration #  7     ecut=   120.00 Ry     beta= 0.70
     Davidson diagonalization with overlap
     ethr =  1.00E-02,  avg # of iterations =  3.3

     negative rho (up, down):  1.034E-03 0.000E+00

     total cpu time spent up to now is       25.1 secs

     total energy              =    -448.61118472 Ry
     estimated scf accuracy    <       3.83071835 Ry

     iteration #  8     ecut=   120.00 Ry     beta= 0.70
     Davidson diagonalization with overlap
     ethr =  1.00E-02,  avg # of iterations =  1.0

     negative rho (up, down):  8.150E-04 0.000E+00

     total cpu time spent up to now is       27.7 secs

     WARNING: integrated charge=    28.00000860, expected=    28.00000000

     total energy              =    -448.44063741 Ry
     estimated scf accuracy    <       1.51016603 Ry

     iteration #  9     ecut=   120.00 Ry     beta= 0.70
     Davidson diagonalization with overlap
     ethr =  5.39E-03,  avg # of iterations =  1.6

     negative rho (up, down):  8.084E-04 0.000E+00

     total cpu time spent up to now is       30.3 secs

     WARNING: integrated charge=    28.00000902, expected=    28.00000000

     total energy              =    -448.59625511 Ry
     estimated scf accuracy    <       0.16355366 Ry

     iteration # 10     ecut=   120.00 Ry     beta= 0.70
     Davidson diagonalization with overlap
     ethr =  5.84E-04,  avg # of iterations =  2.0

     negative rho (up, down):  7.820E-04 0.000E+00

     total cpu time spent up to now is       33.0 secs

     WARNING: integrated charge=    28.00000873, expected=    28.00000000

     total energy              =    -448.62143435 Ry
     estimated scf accuracy    <       0.15371031 Ry

     iteration # 11     ecut=   120.00 Ry     beta= 0.70
     Davidson diagonalization with overlap
     ethr =  5.49E-04,  avg # of iterations =  1.7

     negative rho (up, down):  8.422E-04 0.000E+00

     total cpu time spent up to now is       35.6 secs

     WARNING: integrated charge=    28.00000710, expected=    28.00000000

     total energy              =    -448.59522026 Ry
     estimated scf accuracy    <       0.56840177 Ry

     iteration # 12     ecut=   120.00 Ry     beta= 0.70
     Davidson diagonalization with overlap
     ethr =  5.49E-04,  avg # of iterations =  1.2

     negative rho (up, down):  6.625E-04 0.000E+00

     total cpu time spent up to now is       38.2 secs

     WARNING: integrated charge=    28.00000689, expected=    28.00000000

     total energy              =    -448.66942253 Ry
     estimated scf accuracy    <       0.21832498 Ry

     iteration # 13     ecut=   120.00 Ry     beta= 0.70
     Davidson diagonalization with overlap
     ethr =  5.49E-04,  avg # of iterations =  2.1

     negative rho (up, down):  4.465E-04 0.000E+00

     total cpu time spent up to now is       41.1 secs

     WARNING: integrated charge=    28.00000337, expected=    28.00000000

     total energy              =    -448.89859054 Ry
     estimated scf accuracy    <       0.79467199 Ry

     iteration # 14     ecut=   120.00 Ry     beta= 0.70
     Davidson diagonalization with overlap
     ethr =  5.49E-04,  avg # of iterations =  3.5

     negative rho (up, down):  4.999E-04 0.000E+00

     total cpu time spent up to now is       44.7 secs

     WARNING: integrated charge=    28.00000298, expected=    28.00000000

     total energy              =    -448.88202224 Ry
     estimated scf accuracy    <       1.58689009 Ry

     iteration # 15     ecut=   120.00 Ry     beta= 0.70
     Davidson diagonalization with overlap
     ethr =  5.49E-04,  avg # of iterations =  1.1

     negative rho (up, down):  8.028E-04 0.000E+00

     total cpu time spent up to now is       47.2 secs

     WARNING: integrated charge=    28.00000583, expected=    28.00000000

     total energy              =    -448.53496464 Ry
     estimated scf accuracy    <       1.33000256 Ry

     iteration # 16     ecut=   120.00 Ry     beta= 0.70
     Davidson diagonalization with overlap
     ethr =  5.49E-04,  avg # of iterations =  3.9

     negative rho (up, down):  8.446E-04 0.000E+00

     total cpu time spent up to now is       50.7 secs

     WARNING: integrated charge=    28.00000540, expected=    28.00000000

     total energy              =    -448.58575181 Ry
     estimated scf accuracy    <       0.19023139 Ry

     iteration # 17     ecut=   120.00 Ry     beta= 0.70
     Davidson diagonalization with overlap
     ethr =  5.49E-04,  avg # of iterations =  1.0

     negative rho (up, down):  8.818E-04 0.000E+00

     total cpu time spent up to now is       53.3 secs

     total energy              =    -448.59570441 Ry
     estimated scf accuracy    <       0.11811888 Ry

     iteration # 18     ecut=   120.00 Ry     beta= 0.70
     Davidson diagonalization with overlap
     ethr =  4.22E-04,  avg # of iterations =  1.1

     negative rho (up, down):  1.023E-03 0.000E+00

     total cpu time spent up to now is       55.9 secs

     total energy              =    -448.56514904 Ry
     estimated scf accuracy    <       0.24602810 Ry

     iteration # 19     ecut=   120.00 Ry     beta= 0.70
     Davidson diagonalization with overlap
     ethr =  4.22E-04,  avg # of iterations =  2.4

     negative rho (up, down):  1.057E-03 0.000E+00

     total cpu time spent up to now is       58.8 secs

     total energy              =    -448.58705757 Ry
     estimated scf accuracy    <       0.00744390 Ry

     iteration # 20     ecut=   120.00 Ry     beta= 0.70
     Davidson diagonalization with overlap
     ethr =  2.66E-05,  avg # of iterations =  4.8

     negative rho (up, down):  1.055E-03 0.000E+00

     total cpu time spent up to now is       62.7 secs

     total energy              =    -448.58994149 Ry
     estimated scf accuracy    <       0.03596258 Ry

     iteration # 21     ecut=   120.00 Ry     beta= 0.70
     Davidson diagonalization with overlap
     ethr =  2.66E-05,  avg # of iterations =  1.0

     negative rho (up, down):  1.030E-03 0.000E+00

     total cpu time spent up to now is       65.2 secs

     total energy              =    -448.58800640 Ry
     estimated scf accuracy    <       0.03794688 Ry

     iteration # 22     ecut=   120.00 Ry     beta= 0.70
     Davidson diagonalization with overlap
     ethr =  2.66E-05,  avg # of iterations =  1.1

     negative rho (up, down):  1.035E-03 0.000E+00

     total cpu time spent up to now is       67.7 secs

     total energy              =    -448.58672577 Ry
     estimated scf accuracy    <       0.02818557 Ry

     iteration # 23     ecut=   120.00 Ry     beta= 0.70
     Davidson diagonalization with overlap
     ethr =  2.66E-05,  avg # of iterations =  1.5

     negative rho (up, down):  9.986E-04 0.000E+00

     total cpu time spent up to now is       70.4 secs

     total energy              =    -448.58608172 Ry
     estimated scf accuracy    <       0.00794116 Ry

     iteration # 24     ecut=   120.00 Ry     beta= 0.70
     Davidson diagonalization with overlap
     ethr =  2.66E-05,  avg # of iterations =  1.8

     negative rho (up, down):  9.802E-04 0.000E+00

     total cpu time spent up to now is       73.1 secs

     total energy              =    -448.58610171 Ry
     estimated scf accuracy    <       0.00148132 Ry

     iteration # 25     ecut=   120.00 Ry     beta= 0.70
     Davidson diagonalization with overlap
     ethr =  5.29E-06,  avg # of iterations =  4.0

     negative rho (up, down):  9.759E-04 0.000E+00

     total cpu time spent up to now is       76.2 secs

     total energy              =    -448.58640094 Ry
     estimated scf accuracy    <       0.00008931 Ry

     iteration # 26     ecut=   120.00 Ry     beta= 0.70
     Davidson diagonalization with overlap
     ethr =  3.19E-07,  avg # of iterations =  3.0

     negative rho (up, down):  9.764E-04 0.000E+00

     total cpu time spent up to now is       79.2 secs

     total energy              =    -448.58639326 Ry
     estimated scf accuracy    <       0.00010053 Ry

     iteration # 27     ecut=   120.00 Ry     beta= 0.70
     Davidson diagonalization with overlap
     ethr =  3.19E-07,  avg # of iterations =  1.8

     negative rho (up, down):  9.787E-04 0.000E+00

     total cpu time spent up to now is       81.9 secs

     total energy              =    -448.58639758 Ry
     estimated scf accuracy    <       0.00003230 Ry

     iteration # 28     ecut=   120.00 Ry     beta= 0.70
     Davidson diagonalization with overlap
     ethr =  1.15E-07,  avg # of iterations =  1.1

     negative rho (up, down):  9.796E-04 0.000E+00

     total cpu time spent up to now is       84.4 secs

     total energy              =    -448.58639717 Ry
     estimated scf accuracy    <       0.00001236 Ry

     iteration # 29     ecut=   120.00 Ry     beta= 0.70
     Davidson diagonalization with overlap
     ethr =  4.41E-08,  avg # of iterations =  2.5

     negative rho (up, down):  9.800E-04 0.000E+00

     total cpu time spent up to now is       87.2 secs

     total energy              =    -448.58639735 Ry
     estimated scf accuracy    <       0.00000234 Ry

     iteration # 30     ecut=   120.00 Ry     beta= 0.70
     Davidson diagonalization with overlap
     ethr =  8.36E-09,  avg # of iterations =  2.9

     negative rho (up, down):  9.799E-04 0.000E+00

     total cpu time spent up to now is       90.2 secs

     total energy              =    -448.58639777 Ry
     estimated scf accuracy    <       0.00000014 Ry

     iteration # 31     ecut=   120.00 Ry     beta= 0.70
     Davidson diagonalization with overlap
     ethr =  5.03E-10,  avg # of iterations =  4.4

     negative rho (up, down):  9.798E-04 0.000E+00

     total cpu time spent up to now is       93.7 secs

     End of self-consistent calculation

          k = 0.0000 0.0000 0.0000 (  3791 PWs)   bands (ev):

   -69.2091 -39.1186 -35.2707 -35.2707 -35.2707 -15.2146 -15.2146 -15.2146
    10.1530  13.8671  13.8671  16.6595  16.6595  16.6595  19.0111  19.0111
    20.9600  20.9600

          k = 0.0000 0.0000 0.1000 (  3823 PWs)   bands (ev):

   -69.2088 -39.1161 -35.2737 -35.2703 -35.2703 -15.2499 -15.2125 -15.2125
    10.3618  13.9676  13.9749  16.6441  16.6441  16.7050  18.8836  19.0585
    20.6601  20.6601

          k = 0.0000 0.0000 0.2000 (  3815 PWs)   bands (ev):

   -69.2079 -39.1094 -35.2816 -35.2690 -35.2690 -15.3415 -15.2070 -15.2070
    10.9634  14.2450  14.2599  16.6108  16.6108  16.8303  18.5183  19.1561
    19.9921  19.9921

          k = 0.0000 0.0000 0.3000 (  3815 PWs)   bands (ev):

   -69.2068 -39.1011 -35.2912 -35.2675 -35.2675 -15.4531 -15.2002 -15.2002
    11.8811  14.5154  14.7122  16.5871  16.5871  17.0006  17.9717  19.1419
    19.3002  19.3002

          k = 0.0000 0.0000 0.4000 (  3808 PWs)   bands (ev):

   -69.2059 -39.0945 -35.2989 -35.2663 -35.2663 -15.5421 -15.1946 -15.1946
    12.9675  14.5182  15.2397  16.5881  16.5881  17.1546  17.3649  18.7964
    18.7964  18.8384

          k = 0.0000 0.0000-0.5000 (  3804 PWs)   bands (ev):

   -69.2056 -39.0919 -35.3019 -35.2658 -35.2658 -15.5759 -15.1925 -15.1925
    13.8514  14.0902  15.5491  16.5953  16.5953  17.0246  17.2184  18.6019
    18.6103  18.6103

          k = 0.0000 0.1000 0.1000 (  3819 PWs)   bands (ev):

   -69.2084 -39.1133 -35.2748 -35.2720 -35.2698 -15.2511 -15.2437 -15.2103
    10.5656  14.0614  14.0842  16.5452  16.6174  16.8169  18.8693  19.0238
    20.3429  20.3612

          k = 0.0000 0.1000 0.2000 (  3816 PWs)   bands (ev):

   -69.2075 -39.1062 -35.2822 -35.2720 -35.2686 -15.3383 -15.2405 -15.2045
    11.1507  14.3121  14.3775  16.4520  16.5546  16.9413  18.5982  19.1098
    19.7218  19.7869

          k = 0.0000 0.1000 0.3000 (  3806 PWs)   bands (ev):

   -69.2065 -39.0973 -35.2921 -35.2713 -35.2671 -15.4484 -15.2325 -15.1973
    12.0369  14.5818  14.7890  16.4111  16.4881  16.9996  18.1496  18.9316
    19.3035  19.3265

          k = 0.0000 0.1000 0.4000 (  3801 PWs)   bands (ev):

   -69.2056 -39.0901 -35.3000 -35.2707 -35.2659 -15.5364 -15.2260 -15.1914
    13.0726  14.5703  15.2637  16.4259  16.4338  16.9484  17.6904  18.4889
    19.0520  19.1729

          k = 0.0000 0.1000-0.5000 (  3812 PWs)   bands (ev):

   -69.2053 -39.0874 -35.3030 -35.2705 -35.2654 -15.5698 -15.2236 -15.1892
    13.8870  14.1689  15.5385  16.3626  16.4680  16.8872  17.4908  18.2966
    18.9938  19.0341

          k = 0.0000 0.2000 0.2000 (  3812 PWs)   bands (ev):

   -69.2067 -39.0977 -35.2857 -35.2781 -35.2674 -15.3382 -15.3190 -15.1979
    11.6806  14.4574  14.7146  16.2471  16.4373  16.9747  18.6926  19.0693
    19.1614  19.5093

          k = 0.0000 0.2000 0.3000 (  3800 PWs)   bands (ev):

   -69.2056 -39.0872 -35.2945 -35.2810 -35.2660 -15.4365 -15.3164 -15.1897
    12.4547  14.5839  15.1528  16.1166  16.3544  16.8036  18.5180  18.6540
    19.2401  19.4497

          k = 0.0000 0.2000 0.4000 (  3791 PWs)   bands (ev):

   -69.2047 -39.0787 -35.3028 -35.2822 -35.2649 -15.5214 -15.3077 -15.1830
    13.2979  14.5090  15.5471  16.1009  16.3936  16.5249  18.2064  18.3881
    19.3830  19.5782

          k = 0.0000 0.2000-0.5000 (  3802 PWs)   bands (ev):

   -69.2044 -39.0755 -35.3061 -35.2826 -35.2644 -15.5537 -15.3043 -15.1805
    13.8605  14.2420  15.7161  16.1628  16.3440  16.4705  18.1419  18.1921
    19.4147  19.6776

          k = 0.0000 0.3000 0.3000 (  3792 PWs)   bands (ev):

   -69.2046 -39.0747 -35.2991 -35.2914 -35.2647 -15.4297 -15.4107 -15.1803
    12.9887  14.4730  15.6947  15.8843  16.3990  16.4420  18.5203  18.8391
    19.1304  19.7648

          k = 0.0000 0.3000 0.4000 (  3792 PWs)   bands (ev):

   -69.2037 -39.0646 -35.3064 -35.2963 -35.2636 -15.5029 -15.4072 -15.1727
    13.4474  14.2810  15.7855  16.0914  16.1602  16.7676  18.3518  18.8593
    19.3426  20.1179

          k = 0.0000 0.3000-0.5000 (  3782 PWs)   bands (ev):

   -69.2034 -39.0607 -35.3098 -35.2975 -35.2631 -15.5338 -15.4028 -15.1697
    13.6620  14.1445  15.8270  15.8859  16.3137  17.1717  18.0905  18.8624
    19.5228  20.3181

          k = 0.0000 0.4000 0.4000 (  3802 PWs)   bands (ev):

   -69.2028 -39.0531 -35.3100 -35.3070 -35.2625 -15.4910 -15.4838 -15.1642
    13.4637  14.0816  15.5978  15.7581  16.8928  17.3507  18.5854  19.0573
    19.2680  20.5476

          k = 0.0000 0.4000-0.5000 (  3788 PWs)   bands (ev):

   -69.2025 -39.0487 -35.3129 -35.3095 -35.2621 -15.5176 -15.4816 -15.1610
    13.4497  14.0075  15.5799  15.5913  17.1830  18.0958  18.1429  19.1988
    19.3339  20.7681

          k = 0.0000-0.5000-0.5000 (  3836 PWs)   bands (ev):

   -69.2022 -39.0441 -35.3142 -35.3142 -35.2618 -15.5114 -15.5114 -15.1577
    13.3649  13.9511  15.4902  15.4902  17.7653  18.1970  18.7155  18.7155
    19.4578  20.9305

          k = 0.1000 0.1000 0.1000 (  3827 PWs)   bands (ev):

   -69.2081 -39.1104 -35.2744 -35.2744 -35.2705 -15.2514 -15.2415 -15.2415
    10.7651  14.1724  14.1724  16.5160  16.5160  16.8987  18.9341  18.9341
    19.8711  20.6342

          k = 0.1000 0.1000 0.2000 (  3807 PWs)   bands (ev):

   -69.2072 -39.1028 -35.2825 -35.2731 -35.2706 -15.3350 -15.2397 -15.2359
    11.3366  14.4267  14.4477  16.3882  16.4401  16.9560  18.6779  19.0683
    19.4057  19.9643

          k = 0.1000 0.1000 0.3000 (  3815 PWs)   bands (ev):

   -69.2061 -39.0935 -35.2927 -35.2716 -35.2705 -15.4439 -15.2303 -15.2289
    12.1963  14.7059  14.8114  16.3375  16.3379  16.8862  18.3032  18.9278
    19.2890  19.3769

          k = 0.1000 0.1000 0.4000 (  3803 PWs)   bands (ev):

   -69.2053 -39.0859 -35.3009 -35.2703 -35.2703 -15.5310 -15.2232 -15.2226
    13.1889  14.6622  15.2442  16.2076  16.4171  16.7663  17.9266  18.5945
    18.8166  19.5639

          k = 0.1000 0.1000-0.5000 (  3796 PWs)   bands (ev):

   -69.2049 -39.0830 -35.3040 -35.2703 -35.2698 -15.5640 -15.2210 -15.2197
    13.9491  14.2665  15.4939  16.0997  16.5424  16.6870  17.7571  18.3702
    18.6484  19.6885

          k = 0.1000 0.2000 0.2000 (  3802 PWs)   bands (ev):

   -69.2064 -39.0941 -35.2852 -35.2789 -35.2708 -15.3340 -15.3168 -15.2306
    11.8617  14.5872  14.7667  16.2007  16.3093  16.8242  18.7768  19.0440
    19.2042  19.6787

          k = 0.1000 0.2000 0.3000 (  3790 PWs)   bands (ev):

   -69.2053 -39.0834 -35.2945 -35.2811 -35.2701 -15.4323 -15.3134 -15.2218
    12.6243  14.7337  15.1553  16.0617  16.2160  16.5700  18.6392  18.8359
    19.2255  19.5765

          k = 0.1000 0.2000 0.4000 (  3803 PWs)   bands (ev):

   -69.2044 -39.0747 -35.3032 -35.2818 -35.2693 -15.5168 -15.3047 -15.2147
    13.4451  14.6570  15.4531  15.9830  16.2797  16.4358  18.4000  18.4743
    19.0330  20.0424

          k = 0.1000 0.2000-0.5000 (  3804 PWs)   bands (ev):

   -69.2041 -39.0713 -35.3066 -35.2821 -35.2690 -15.5489 -15.3013 -15.2119
    13.9841  14.3812  15.5812  15.9415  16.2957  16.5308  18.2040  18.3558
    18.8907  20.4134

          k = 0.1000 0.3000 0.3000 (  3790 PWs)   bands (ev):

   -69.2042 -39.0709 -35.2985 -35.2917 -35.2690 -15.4252 -15.4084 -15.2123
    13.1680  14.6234  15.6873  15.8413  16.2024  16.2537  18.6255  18.9931
    19.0880  19.9874

          k = 0.1000 0.3000 0.4000 (  3799 PWs)   bands (ev):

   -69.2034 -39.0608 -35.3062 -35.2960 -35.2680 -15.4993 -15.4045 -15.2045
    13.6188  14.4309  15.7340  15.8961  16.1727  16.6024  18.3885  18.9386
    19.1382  20.5288

          k = 0.1000 0.3000-0.5000 (  3798 PWs)   bands (ev):

   -69.2030 -39.0569 -35.3098 -35.2969 -35.2676 -15.5301 -15.4002 -15.2015
    13.8180  14.2993  15.7534  15.7670  16.2726  17.0249  18.1122  18.9942
    19.0302  20.7100

          k = 0.1000 0.4000 0.4000 (  3799 PWs)   bands (ev):

   -69.2025 -39.0495 -35.3094 -35.3067 -35.2669 -15.4878 -15.4815 -15.1962
    13.6329  14.2340  15.5659  15.6948  16.8188  17.1321  18.4667  18.8174
    19.3726  20.8229

          k = 0.1000 0.4000-0.5000 (  3798 PWs)   bands (ev):

   -69.2022 -39.0451 -35.3125 -35.3089 -35.2665 -15.5149 -15.4792 -15.1930
    13.6139  14.1623  15.5460  15.5532  17.0825  17.8050  18.0882  18.7792
    19.4428  20.9289

          k = 0.1000-0.5000-0.5000 (  3828 PWs)   bands (ev):

   -69.2019 -39.0406 -35.3135 -35.3135 -35.2662 -15.5091 -15.5091 -15.1898
    13.5308  14.1053  15.4648  15.4648  17.7690  18.1981  18.2046  18.2046
    19.5621  21.5825

          k = 0.2000 0.2000 0.2000 (  3803 PWs)   bands (ev):

   -69.2055 -39.0848 -35.2838 -35.2838 -35.2769 -15.3279 -15.3108 -15.3108
    12.3683  14.9110  14.9110  16.0807  16.0807  16.4312  18.9669  18.9669
    19.4619  19.9326

          k = 0.2000 0.2000 0.3000 (  3802 PWs)   bands (ev):

   -69.2044 -39.0733 -35.2948 -35.2821 -35.2795 -15.4216 -15.3073 -15.3035
    13.0839  15.1119  15.1614  15.9291  15.9530  16.1233  18.8450  18.9687
    19.3184  19.9271

          k = 0.2000 0.2000 0.4000 (  3810 PWs)   bands (ev):

   -69.2036 -39.0639 -35.3044 -35.2809 -35.2808 -15.5047 -15.2976 -15.2961
    13.8038  14.9409  15.3129  15.7849  16.0492  16.2662  18.5589  18.7087
    18.9271  20.4839

          k = 0.2000 0.2000-0.5000 (  3798 PWs)   bands (ev):

   -69.2033 -39.0604 -35.3080 -35.2814 -35.2802 -15.5362 -15.2953 -15.2917
    14.2310  14.6413  15.4187  15.7052  16.1279  16.4990  18.2213  18.6359
    18.8078  20.5934

          k = 0.2000 0.3000 0.3000 (  3800 PWs)   bands (ev):

   -69.2034 -39.0608 -35.2970 -35.2926 -35.2802 -15.4136 -15.4023 -15.2953
    13.6644  15.0188  15.6530  15.7397  15.7729  15.8881  18.7368  18.9279
    19.4199  20.1874

          k = 0.2000 0.3000 0.4000 (  3810 PWs)   bands (ev):

   -69.2025 -39.0506 -35.3059 -35.2951 -35.2796 -15.4898 -15.3972 -15.2871
    14.0906  14.7992  15.5835  15.6409  15.9951  16.2829  18.4329  18.6942
    19.3998  20.5239

          k = 0.2000 0.3000-0.5000 (  3798 PWs)   bands (ev):

   -69.2022 -39.0468 -35.3098 -35.2955 -35.2793 -15.5206 -15.3932 -15.2839
    14.2382  14.6708  15.5418  15.6096  16.0956  16.6860  18.1154  18.5988
    19.3714  20.6975

          k = 0.2000 0.4000 0.4000 (  3794 PWs)   bands (ev):

   -69.2017 -39.0399 -35.3078 -35.3060 -35.2785 -15.4796 -15.4754 -15.2792
    14.1107  14.6220  15.4917  15.5670  16.5806  16.5874  18.3637  18.4144
    19.7069  20.7841

          k = 0.2000 0.4000-0.5000 (  3804 PWs)   bands (ev):

   -69.2014 -39.0357 -35.3113 -35.3073 -35.2781 -15.5079 -15.4729 -15.2761
    14.0768  14.5598  15.4703  15.4744  16.7320  17.1350  18.0226  18.3742
    19.7734  20.9838

          k = 0.2000-0.5000-0.5000 (  3788 PWs)   bands (ev):

   -69.2010 -39.0315 -35.3119 -35.3119 -35.2776 -15.5031 -15.5031 -15.2731
    14.0018  14.5077  15.4086  15.4086  17.3545  17.3545  17.7788  18.1833
    19.8816  21.2325

          k = 0.3000 0.3000 0.3000 (  3791 PWs)   bands (ev):

   -69.2023 -39.0483 -35.2952 -35.2952 -35.2924 -15.4011 -15.3948 -15.3948
    14.3114  15.2846  15.5694  15.5694  15.6452  15.6452  18.6741  18.6741
    19.9780  19.9780

          k = 0.3000 0.3000 0.4000 (  3787 PWs)   bands (ev):

   -69.2015 -39.0381 -35.3056 -35.2940 -35.2937 -15.4781 -15.3887 -15.3873
    14.6593  15.0418  15.4872  15.5722  15.7250  16.0895  18.3376  18.4734
    19.9115  20.5338

          k = 0.3000 0.3000-0.5000 (  3814 PWs)   bands (ev):

   -69.2012 -39.0342 -35.3098 -35.2943 -35.2932 -15.5088 -15.3864 -15.3828
    14.6718  14.9570  15.4579  15.5392  15.8954  16.4308  18.0382  18.4036
    19.8975  20.7766

          k = 0.3000 0.4000 0.4000 (  3789 PWs)   bands (ev):

   -69.2007 -39.0279 -35.3058 -35.3051 -35.2927 -15.4695 -15.4679 -15.3805
    14.7731  15.0336  15.4275  15.5516  16.0095  16.2109  18.1568  18.2608
    20.2449  20.8075

          k = 0.3000 0.4000-0.5000 (  3800 PWs)   bands (ev):

   -69.2003 -39.0240 -35.3098 -35.3054 -35.2923 -15.4993 -15.4651 -15.3776
    14.7240  14.9990  15.4335  15.4491  16.2188  16.5008  17.9310  18.2043
    20.3028  21.0376

          k = 0.3000-0.5000-0.5000 (  3788 PWs)   bands (ev):

   -69.2000 -39.0201 -35.3098 -35.3098 -35.2917 -15.4956 -15.4956 -15.3750
    14.6882  14.9965  15.3720  15.3720  16.5966  16.5966  17.7910  18.1051
    20.4064  21.2580

          k = 0.4000 0.4000 0.4000 (  3809 PWs)   bands (ev):

   -69.1998 -39.0183 -35.3044 -35.3042 -35.3042 -15.4618 -15.4618 -15.4610
    15.0742  15.4321  15.4321  15.6546  15.8426  15.8426  18.0461  18.0461
    20.8388  20.8388

          k = 0.4000 0.4000-0.5000 (  3804 PWs)   bands (ev):

   -69.1995 -39.0146 -35.3087 -35.3040 -35.3036 -15.4922 -15.4595 -15.4581
    15.1912  15.2361  15.5116  15.6247  15.8262  16.1003  17.8749  18.0172
    20.8519  21.1223

          k = 0.4000-0.5000-0.5000 (  3804 PWs)   bands (ev):

   -69.1992 -39.0109 -35.3082 -35.3082 -35.3032 -15.4896 -15.4896 -15.4564
    15.3774  15.3961  15.4135  15.4135  16.0283  16.0283  17.8008  17.9324
    20.9986  21.2787

          k =-0.5000-0.5000-0.5000 (  3840 PWs)   bands (ev):

   -69.1989 -39.0074 -35.3076 -35.3076 -35.3076 -15.4872 -15.4872 -15.4872
    15.5178  15.5178  15.5178  15.7402  15.7402  15.7402  17.8046  17.8046
    21.2866  21.2866

     the Fermi energy is    17.7495 ev

!    total energy              =    -448.58639783 Ry
     estimated scf accuracy    <          4.3E-09 Ry
     smearing contrib. (-TS)   =      -0.00005135 Ry
     internal energy E=F+TS    =    -448.58634648 Ry

     The total energy is F=E-TS. E is the sum of the following terms:
     one-electron contribution =    -151.36078963 Ry
     hartree contribution      =      91.63993155 Ry
     xc contribution           =     -52.89117087 Ry
     ewald contribution        =    -259.82070277 Ry
     one-center paw contrib.   =     -76.15361477 Ry

     convergence has been achieved in  31 iterations

     negative rho (up, down):  9.798E-04 0.000E+00

     Forces acting on atoms (cartesian axes, Ry/au):

     atom    1 type  1   force =     0.00000000    0.00000000    0.00000000
     atom    2 type  2   force =     0.00000000    0.00000000    0.00000000

     Total force =     0.000000     Total SCF correction =     0.000000


     Computing stress (Cartesian axis) and pressure


     negative rho (up, down):  9.798E-04 0.000E+00
          total   stress  (Ry/bohr**3)                   (kbar)     P=       27.80
   0.00018896   0.00000000   0.00000000           27.80        0.00        0.00
   0.00000000   0.00018896   0.00000000            0.00       27.80        0.00
   0.00000000   0.00000000   0.00018896            0.00        0.00       27.80


     Writing all to output data dir ./out/TiFe9.save/ :
     XML data file, charge density, pseudopotentials, collected wavefunctions

     init_run     :      1.56s CPU      1.70s WALL (       1 calls)
     electrons    :     85.11s CPU     91.85s WALL (       1 calls)
     forces       :      0.52s CPU      0.58s WALL (       1 calls)
     stress       :      2.50s CPU      2.67s WALL (       1 calls)

     Called by init_run:
     wfcinit      :      0.99s CPU      1.03s WALL (       1 calls)
     potinit      :      0.16s CPU      0.18s WALL (       1 calls)
     hinit0       :      0.22s CPU      0.22s WALL (       1 calls)

     Called by electrons:
     c_bands      :     61.68s CPU     63.65s WALL (      31 calls)
     sum_band     :     13.41s CPU     15.96s WALL (      31 calls)
     v_of_rho     :      1.54s CPU      1.60s WALL (      32 calls)
     newd         :      5.23s CPU      7.14s WALL (      32 calls)
     PAW_pot      :      3.11s CPU      3.42s WALL (      32 calls)
     mix_rho      :      0.24s CPU      0.25s WALL (      31 calls)

     Called by c_bands:
     init_us_2    :      1.46s CPU      1.48s WALL (    3640 calls)
     cegterg      :     58.55s CPU     60.49s WALL (    1736 calls)

     Called by *egterg:
     cdiaghg      :      1.83s CPU      1.85s WALL (    5745 calls)
     h_psi        :     41.80s CPU     43.64s WALL (    5801 calls)
     s_psi        :      2.99s CPU      3.00s WALL (    5801 calls)
     g_psi        :      0.14s CPU      0.14s WALL (    4009 calls)

     Called by h_psi:
     h_psi:calbec :      4.52s CPU      4.66s WALL (    5801 calls)
     vloc_psi     :     33.78s CPU     35.46s WALL (    5801 calls)
     add_vuspsi   :      3.03s CPU      3.05s WALL (    5801 calls)

     General routines
     calbec       :      6.76s CPU      6.96s WALL (    8489 calls)
     fft          :      0.72s CPU      0.81s WALL (     439 calls)
     ffts         :      0.02s CPU      0.02s WALL (      63 calls)
     fftw         :     30.68s CPU     32.33s WALL (  181064 calls)
     interpolate  :      0.08s CPU      0.10s WALL (      32 calls)

     Parallel routines

     PWSCF        :   1m29.91s CPU   1m37.07s WALL


   This run was terminated on:   1: 9:25  30Oct2025            

=------------------------------------------------------------------------------=
   JOB DONE.
=------------------------------------------------------------------------------=
