
     Program PWSCF v.7.4.1 starts on 30Oct2025 at  1:23:20 

     This program is part of the open-source Quantum ESPRESSO suite
     for quantum simulation of materials; please cite
         "P. Giannozzi et al., J. Phys.:Condens. Matter 21 395502 (2009);
         "P. Giannozzi et al., J. Phys.:Condens. Matter 29 465901 (2017);
         "P. Giannozzi et al., J. Chem. Phys. 152 154105 (2020);
          URL http://www.quantum-espresso.org", 
     in publications or presentations arising from this work. More details at
     http://www.quantum-espresso.org/quote

     Parallel version (MPI), running on     4 processors

     MPI processes distributed on     1 nodes
     4040 MiB available memory on the printing compute node when the environment starts

     Reading input from TiFe15.in

     Current dimensions of program PWSCF are:
     Max number of different atomic species (ntypx) = 10
     Max number of k-points (npk) =  40000
     Max angular momentum in pseudopotentials (lmaxx) =  4
     file Fe.pbe-spn-kjpaw_psl.0.2.1.UPF: wavefunction(s)  3D renormalized

     IMPORTANT: XC functional enforced from input :
     Exchange-correlation= PBE
                           (   1   4   3   4   0   0   0)
     Any further DFT definition will be discarded
     Please, verify this is what you really want

     Message from routine setup:
     using ibrav=0 with symmetry is DISCOURAGED, use correct ibrav instead

     R & G space division:  proc/nbgrp/npool/nimage =       4
     Subspace diagonalization in iterative solution of the eigenvalue problem:
     a serial algorithm will be used


     Parallelization info
     --------------------
     sticks:   dense  smooth     PW     G-vecs:    dense   smooth      PW
     Min        1105     440    126                55279    13950    2150
     Max        1106     442    127                55282    13952    2151
     Sum        4421    1765    505               221119    55803    8601

     Using Slab Decomposition



     bravais-lattice index     =            0
     lattice parameter (alat)  =       5.5533  a.u.
     unit-cell volume          =     171.2590 (a.u.)^3
     number of atoms/cell      =            2
     number of atomic types    =            2
     number of electrons       =        28.00
     number of Kohn-Sham states=           18
     kinetic-energy cutoff     =     180.0000  Ry
     charge density cutoff     =    1800.0000  Ry
     scf convergence threshold =      1.0E-08
     mixing beta               =       0.7000
     number of iterations used =            8  plain     mixing
     Exchange-correlation= PBE
                           (   1   4   3   4   0   0   0)

     celldm(1)=   5.553300  celldm(2)=   0.000000  celldm(3)=   0.000000
     celldm(4)=   0.000000  celldm(5)=   0.000000  celldm(6)=   0.000000

     crystal axes: (cart. coord. in units of alat)
               a(1) = (   1.000000   0.000000   0.000000 )  
               a(2) = (   0.000000   1.000000   0.000000 )  
               a(3) = (   0.000000   0.000000   1.000000 )  

     reciprocal axes: (cart. coord. in units 2 pi/alat)
               b(1) = (  1.000000  0.000000  0.000000 )  
               b(2) = (  0.000000  1.000000  0.000000 )  
               b(3) = (  0.000000  0.000000  1.000000 )  


     PseudoPot. # 1 for Fe read from file:
     /home/rafi/QE/qe-7.4.1/pseudo/Fe.pbe-spn-kjpaw_psl.0.2.1.UPF
     MD5 check sum: e86618425769142926afa95317d90200
     Pseudo is Projector augmented-wave + core cor, Zval = 16.0
     Generated using "atomic" code by A. Dal Corso  v.5.0.99 svn rev. 10869
     Shape of augmentation charge: PSQ
     Using radial grid of 1191 points,  6 beta functions with: 
                l(1) =   0
                l(2) =   0
                l(3) =   1
                l(4) =   1
                l(5) =   2
                l(6) =   2
     Q(r) pseudized with 0 coefficients 


     PseudoPot. # 2 for Ti read from file:
     /home/rafi/QE/qe-7.4.1/pseudo/ti_pbe_v1.4.uspp.F.UPF
     MD5 check sum: 88a00a6731bd790ddea75d31a80cb452
     Pseudo is Ultrasoft + core correction, Zval = 12.0
     Generated by new atomic code, or converted to UPF format
     Using radial grid of  851 points,  6 beta functions with: 
                l(1) =   0
                l(2) =   0
                l(3) =   1
                l(4) =   1
                l(5) =   2
                l(6) =   2
     Q(r) pseudized with  6 coefficients,  rinner =    1.000   1.000   1.000
                                                       1.000   1.000

     atomic species   valence    mass     pseudopotential
     Fe               16.00    55.84500     Fe( 1.00)
     Ti               12.00    47.86700     Ti( 1.00)

     48 Sym. Ops., with inversion, found



   Cartesian axes

     site n.     atom                  positions (alat units)
         1        Fe     tau(   1) = (   0.5000000   0.5000000   0.5000000  )
         2        Ti     tau(   2) = (   0.0000000   0.0000000   0.0000000  )

     number of k points=    56  Marzari-Vanderbilt smearing, width (Ry)=  0.0050
                       cart. coord. in units 2pi/alat
        k(    1) = (   0.0000000   0.0000000   0.0000000), wk =   0.0020000
        k(    2) = (   0.0000000   0.0000000   0.1000000), wk =   0.0120000
        k(    3) = (   0.0000000   0.0000000   0.2000000), wk =   0.0120000
        k(    4) = (   0.0000000   0.0000000   0.3000000), wk =   0.0120000
        k(    5) = (   0.0000000   0.0000000   0.4000000), wk =   0.0120000
        k(    6) = (   0.0000000   0.0000000  -0.5000000), wk =   0.0060000
        k(    7) = (   0.0000000   0.1000000   0.1000000), wk =   0.0240000
        k(    8) = (   0.0000000   0.1000000   0.2000000), wk =   0.0480000
        k(    9) = (   0.0000000   0.1000000   0.3000000), wk =   0.0480000
        k(   10) = (   0.0000000   0.1000000   0.4000000), wk =   0.0480000
        k(   11) = (   0.0000000   0.1000000  -0.5000000), wk =   0.0240000
        k(   12) = (   0.0000000   0.2000000   0.2000000), wk =   0.0240000
        k(   13) = (   0.0000000   0.2000000   0.3000000), wk =   0.0480000
        k(   14) = (   0.0000000   0.2000000   0.4000000), wk =   0.0480000
        k(   15) = (   0.0000000   0.2000000  -0.5000000), wk =   0.0240000
        k(   16) = (   0.0000000   0.3000000   0.3000000), wk =   0.0240000
        k(   17) = (   0.0000000   0.3000000   0.4000000), wk =   0.0480000
        k(   18) = (   0.0000000   0.3000000  -0.5000000), wk =   0.0240000
        k(   19) = (   0.0000000   0.4000000   0.4000000), wk =   0.0240000
        k(   20) = (   0.0000000   0.4000000  -0.5000000), wk =   0.0240000
        k(   21) = (   0.0000000  -0.5000000  -0.5000000), wk =   0.0060000
        k(   22) = (   0.1000000   0.1000000   0.1000000), wk =   0.0160000
        k(   23) = (   0.1000000   0.1000000   0.2000000), wk =   0.0480000
        k(   24) = (   0.1000000   0.1000000   0.3000000), wk =   0.0480000
        k(   25) = (   0.1000000   0.1000000   0.4000000), wk =   0.0480000
        k(   26) = (   0.1000000   0.1000000  -0.5000000), wk =   0.0240000
        k(   27) = (   0.1000000   0.2000000   0.2000000), wk =   0.0480000
        k(   28) = (   0.1000000   0.2000000   0.3000000), wk =   0.0960000
        k(   29) = (   0.1000000   0.2000000   0.4000000), wk =   0.0960000
        k(   30) = (   0.1000000   0.2000000  -0.5000000), wk =   0.0480000
        k(   31) = (   0.1000000   0.3000000   0.3000000), wk =   0.0480000
        k(   32) = (   0.1000000   0.3000000   0.4000000), wk =   0.0960000
        k(   33) = (   0.1000000   0.3000000  -0.5000000), wk =   0.0480000
        k(   34) = (   0.1000000   0.4000000   0.4000000), wk =   0.0480000
        k(   35) = (   0.1000000   0.4000000  -0.5000000), wk =   0.0480000
        k(   36) = (   0.1000000  -0.5000000  -0.5000000), wk =   0.0120000
        k(   37) = (   0.2000000   0.2000000   0.2000000), wk =   0.0160000
        k(   38) = (   0.2000000   0.2000000   0.3000000), wk =   0.0480000
        k(   39) = (   0.2000000   0.2000000   0.4000000), wk =   0.0480000
        k(   40) = (   0.2000000   0.2000000  -0.5000000), wk =   0.0240000
        k(   41) = (   0.2000000   0.3000000   0.3000000), wk =   0.0480000
        k(   42) = (   0.2000000   0.3000000   0.4000000), wk =   0.0960000
        k(   43) = (   0.2000000   0.3000000  -0.5000000), wk =   0.0480000
        k(   44) = (   0.2000000   0.4000000   0.4000000), wk =   0.0480000
        k(   45) = (   0.2000000   0.4000000  -0.5000000), wk =   0.0480000
        k(   46) = (   0.2000000  -0.5000000  -0.5000000), wk =   0.0120000
        k(   47) = (   0.3000000   0.3000000   0.3000000), wk =   0.0160000
        k(   48) = (   0.3000000   0.3000000   0.4000000), wk =   0.0480000
        k(   49) = (   0.3000000   0.3000000  -0.5000000), wk =   0.0240000
        k(   50) = (   0.3000000   0.4000000   0.4000000), wk =   0.0480000
        k(   51) = (   0.3000000   0.4000000  -0.5000000), wk =   0.0480000
        k(   52) = (   0.3000000  -0.5000000  -0.5000000), wk =   0.0120000
        k(   53) = (   0.4000000   0.4000000   0.4000000), wk =   0.0160000
        k(   54) = (   0.4000000   0.4000000  -0.5000000), wk =   0.0240000
        k(   55) = (   0.4000000  -0.5000000  -0.5000000), wk =   0.0120000
        k(   56) = (  -0.5000000  -0.5000000  -0.5000000), wk =   0.0020000

     Dense  grid:   221119 G-vectors     FFT dimensions: (  75,  75,  75)

     Smooth grid:    55803 G-vectors     FFT dimensions: (  48,  48,  48)

     Estimated max dynamical RAM per process >     236.34 MB

     Estimated total dynamical RAM >     945.38 MB

     Check: negative core charge=   -0.000002

     Initial potential from superposition of free atoms

     starting charge      26.9995, renormalised to      28.0000

     negative rho (up, down):  1.364E-03 0.000E+00
     Starting wfcs are   23 randomized atomic wfcs
     Checking if some PAW data can be deallocated... 

     total cpu time spent up to now is        3.1 secs

     Self-consistent Calculation

     iteration #  1     ecut=   180.00 Ry     beta= 0.70
     Davidson diagonalization with overlap
     ethr =  1.00E-02,  avg # of iterations =  2.2

     negative rho (up, down):  9.170E-05 0.000E+00

     total cpu time spent up to now is        8.8 secs

     total energy              =    -434.85108200 Ry
     estimated scf accuracy    <      17.50967723 Ry

     iteration #  2     ecut=   180.00 Ry     beta= 0.70
     Davidson diagonalization with overlap
     ethr =  1.00E-02,  avg # of iterations =  6.1

     negative rho (up, down):  2.092E-05 0.000E+00

     total cpu time spent up to now is       18.6 secs

     WARNING: integrated charge=    28.00010693, expected=    28.00000000

     total energy              =    -448.48956013 Ry
     estimated scf accuracy    <      66.32504947 Ry

     iteration #  3     ecut=   180.00 Ry     beta= 0.70
     Davidson diagonalization with overlap
     ethr =  1.00E-02,  avg # of iterations =  3.2

     negative rho (up, down):  2.352E-04 0.000E+00

     total cpu time spent up to now is       25.4 secs

     WARNING: integrated charge=    28.00001515, expected=    28.00000000

     total energy              =    -448.60566790 Ry
     estimated scf accuracy    <      16.77225490 Ry

     iteration #  4     ecut=   180.00 Ry     beta= 0.70
     Davidson diagonalization with overlap
     ethr =  1.00E-02,  avg # of iterations =  2.1

     negative rho (up, down):  2.757E-04 0.000E+00

     total cpu time spent up to now is       31.1 secs

     WARNING: integrated charge=    28.00001609, expected=    28.00000000

     total energy              =    -449.11152527 Ry
     estimated scf accuracy    <       4.88393169 Ry

     iteration #  5     ecut=   180.00 Ry     beta= 0.70
     Davidson diagonalization with overlap
     ethr =  1.00E-02,  avg # of iterations =  1.0

     negative rho (up, down):  3.376E-04 0.000E+00

     total cpu time spent up to now is       35.8 secs

     WARNING: integrated charge=    28.00002014, expected=    28.00000000

     total energy              =    -449.10738748 Ry
     estimated scf accuracy    <       4.41656685 Ry

     iteration #  6     ecut=   180.00 Ry     beta= 0.70
     Davidson diagonalization with overlap
     ethr =  1.00E-02,  avg # of iterations =  1.0

     negative rho (up, down):  1.088E-03 0.000E+00

     total cpu time spent up to now is       40.5 secs

     total energy              =    -447.89486903 Ry
     estimated scf accuracy    <       4.63193238 Ry

     iteration #  7     ecut=   180.00 Ry     beta= 0.70
     Davidson diagonalization with overlap
     ethr =  1.00E-02,  avg # of iterations =  3.3

     negative rho (up, down):  1.058E-03 0.000E+00

     total cpu time spent up to now is       46.3 secs

     total energy              =    -448.70283893 Ry
     estimated scf accuracy    <       3.34970516 Ry

     iteration #  8     ecut=   180.00 Ry     beta= 0.70
     Davidson diagonalization with overlap
     ethr =  1.00E-02,  avg # of iterations =  1.0

     negative rho (up, down):  1.204E-03 0.000E+00

     total cpu time spent up to now is       51.0 secs

     WARNING: integrated charge=    27.99999688, expected=    28.00000000

     total energy              =    -448.79763108 Ry
     estimated scf accuracy    <       2.82966870 Ry

     iteration #  9     ecut=   180.00 Ry     beta= 0.70
     Davidson diagonalization with overlap
     ethr =  1.00E-02,  avg # of iterations =  1.0

     negative rho (up, down):  9.416E-04 0.000E+00

     total cpu time spent up to now is       55.7 secs

     WARNING: integrated charge=    28.00001232, expected=    28.00000000

     total energy              =    -448.23577380 Ry
     estimated scf accuracy    <       4.74869300 Ry

     iteration # 10     ecut=   180.00 Ry     beta= 0.70
     Davidson diagonalization with overlap
     ethr =  1.00E-02,  avg # of iterations =  1.5

     negative rho (up, down):  9.170E-04 0.000E+00

     total cpu time spent up to now is       60.6 secs

     WARNING: integrated charge=    28.00001159, expected=    28.00000000

     total energy              =    -448.57747766 Ry
     estimated scf accuracy    <       0.09454596 Ry

     iteration # 11     ecut=   180.00 Ry     beta= 0.70
     Davidson diagonalization with overlap
     ethr =  3.38E-04,  avg # of iterations =  3.2

     negative rho (up, down):  8.354E-04 0.000E+00

     total cpu time spent up to now is       66.0 secs

     WARNING: integrated charge=    28.00000609, expected=    28.00000000

     total energy              =    -448.61976308 Ry
     estimated scf accuracy    <       0.07401598 Ry

     iteration # 12     ecut=   180.00 Ry     beta= 0.70
     Davidson diagonalization with overlap
     ethr =  2.64E-04,  avg # of iterations =  3.2

     negative rho (up, down):  8.176E-04 0.000E+00

     total cpu time spent up to now is       71.6 secs

     WARNING: integrated charge=    28.00000608, expected=    28.00000000

     total energy              =    -448.62397179 Ry
     estimated scf accuracy    <       0.81706882 Ry

     iteration # 13     ecut=   180.00 Ry     beta= 0.70
     Davidson diagonalization with overlap
     ethr =  2.64E-04,  avg # of iterations =  1.0

     negative rho (up, down):  2.129E-03 0.000E+00

     total cpu time spent up to now is       76.3 secs

     WARNING: integrated charge=    27.99999572, expected=    28.00000000

     total energy              =    -448.52794729 Ry
     estimated scf accuracy    <       0.52137095 Ry

     iteration # 14     ecut=   180.00 Ry     beta= 0.70
     Davidson diagonalization with overlap
     ethr =  2.64E-04,  avg # of iterations =  5.0

     negative rho (up, down):  1.638E-03 0.000E+00

     total cpu time spent up to now is       83.6 secs

     total energy              =    -448.59773914 Ry
     estimated scf accuracy    <       0.42436407 Ry

     iteration # 15     ecut=   180.00 Ry     beta= 0.70
     Davidson diagonalization with overlap
     ethr =  2.64E-04,  avg # of iterations =  4.2
     Minimization algorithm failed to find Fermi energy: reverting to bisection
     Possible cause: smearing is larger than the electronic band-gap.

     negative rho (up, down):  2.254E-03 0.000E+00

     total cpu time spent up to now is       90.4 secs

     WARNING: integrated charge=    27.99999431, expected=    28.00000000

     total energy              =    -448.60768516 Ry
     estimated scf accuracy    <       0.41365827 Ry

     iteration # 16     ecut=   180.00 Ry     beta= 0.70
     Davidson diagonalization with overlap
     ethr =  2.64E-04,  avg # of iterations =  3.6

     negative rho (up, down):  5.264E-04 0.000E+00

     total cpu time spent up to now is       96.3 secs

     total energy              =    -448.58129299 Ry
     estimated scf accuracy    <       0.32834370 Ry

     iteration # 17     ecut=   180.00 Ry     beta= 0.70
     Davidson diagonalization with overlap
     ethr =  2.64E-04,  avg # of iterations =  3.8

     negative rho (up, down):  7.154E-04 0.000E+00

     total cpu time spent up to now is      102.9 secs

     total energy              =    -448.61328069 Ry
     estimated scf accuracy    <       0.39766489 Ry

     iteration # 18     ecut=   180.00 Ry     beta= 0.70
     Davidson diagonalization with overlap
     ethr =  2.64E-04,  avg # of iterations =  1.3

     negative rho (up, down):  1.033E-03 0.000E+00

     total cpu time spent up to now is      107.9 secs

     total energy              =    -448.56752901 Ry
     estimated scf accuracy    <       0.34875760 Ry

     iteration # 19     ecut=   180.00 Ry     beta= 0.70
     Davidson diagonalization with overlap
     ethr =  2.64E-04,  avg # of iterations =  3.6

     negative rho (up, down):  7.027E-04 0.000E+00

     total cpu time spent up to now is      114.0 secs

     WARNING: integrated charge=    27.99999407, expected=    28.00000000

     total energy              =    -448.59237446 Ry
     estimated scf accuracy    <       0.04998757 Ry

     iteration # 20     ecut=   180.00 Ry     beta= 0.70
     Davidson diagonalization with overlap
     ethr =  1.79E-04,  avg # of iterations =  2.6

     negative rho (up, down):  9.314E-04 0.000E+00

     total cpu time spent up to now is      120.1 secs

     total energy              =    -448.57932976 Ry
     estimated scf accuracy    <       0.12019763 Ry

     iteration # 21     ecut=   180.00 Ry     beta= 0.70
     Davidson diagonalization with overlap
     ethr =  1.79E-04,  avg # of iterations =  2.3

     negative rho (up, down):  9.448E-04 0.000E+00

     total cpu time spent up to now is      125.5 secs

     total energy              =    -448.58611327 Ry
     estimated scf accuracy    <       0.00906673 Ry

     iteration # 22     ecut=   180.00 Ry     beta= 0.70
     Davidson diagonalization with overlap
     ethr =  3.24E-05,  avg # of iterations =  2.6

     negative rho (up, down):  9.700E-04 0.000E+00

     total cpu time spent up to now is      130.9 secs

     total energy              =    -448.58608522 Ry
     estimated scf accuracy    <       0.00743490 Ry

     iteration # 23     ecut=   180.00 Ry     beta= 0.70
     Davidson diagonalization with overlap
     ethr =  2.66E-05,  avg # of iterations =  2.0

     negative rho (up, down):  9.629E-04 0.000E+00

     total cpu time spent up to now is      136.1 secs

     total energy              =    -448.58668313 Ry
     estimated scf accuracy    <       0.00007402 Ry

     iteration # 24     ecut=   180.00 Ry     beta= 0.70
     Davidson diagonalization with overlap
     ethr =  2.64E-07,  avg # of iterations =  5.6

     negative rho (up, down):  9.640E-04 0.000E+00

     total cpu time spent up to now is      144.8 secs

     total energy              =    -448.58681731 Ry
     estimated scf accuracy    <       0.00003867 Ry

     iteration # 25     ecut=   180.00 Ry     beta= 0.70
     Davidson diagonalization with overlap
     ethr =  1.38E-07,  avg # of iterations =  1.2

     negative rho (up, down):  9.623E-04 0.000E+00

     total cpu time spent up to now is      149.5 secs

     total energy              =    -448.58680823 Ry
     estimated scf accuracy    <       0.00005346 Ry

     iteration # 26     ecut=   180.00 Ry     beta= 0.70
     Davidson diagonalization with overlap
     ethr =  1.38E-07,  avg # of iterations =  1.0

     negative rho (up, down):  9.609E-04 0.000E+00

     total cpu time spent up to now is      154.2 secs

     total energy              =    -448.58679654 Ry
     estimated scf accuracy    <       0.00001947 Ry

     iteration # 27     ecut=   180.00 Ry     beta= 0.70
     Davidson diagonalization with overlap
     ethr =  6.95E-08,  avg # of iterations =  3.9

     negative rho (up, down):  9.619E-04 0.000E+00

     total cpu time spent up to now is      160.9 secs

     total energy              =    -448.58680298 Ry
     estimated scf accuracy    <       0.00003146 Ry

     iteration # 28     ecut=   180.00 Ry     beta= 0.70
     Davidson diagonalization with overlap
     ethr =  6.95E-08,  avg # of iterations =  1.7

     negative rho (up, down):  9.624E-04 0.000E+00

     total cpu time spent up to now is      166.0 secs

     total energy              =    -448.58680257 Ry
     estimated scf accuracy    <       0.00000444 Ry

     iteration # 29     ecut=   180.00 Ry     beta= 0.70
     Davidson diagonalization with overlap
     ethr =  1.59E-08,  avg # of iterations =  3.7

     negative rho (up, down):  9.619E-04 0.000E+00

     total cpu time spent up to now is      171.9 secs

     total energy              =    -448.58680359 Ry
     estimated scf accuracy    <       0.00000077 Ry

     iteration # 30     ecut=   180.00 Ry     beta= 0.70
     Davidson diagonalization with overlap
     ethr =  2.75E-09,  avg # of iterations =  3.6

     negative rho (up, down):  9.620E-04 0.000E+00

     total cpu time spent up to now is      177.9 secs

     total energy              =    -448.58680367 Ry
     estimated scf accuracy    <       0.00000049 Ry

     iteration # 31     ecut=   180.00 Ry     beta= 0.70
     Davidson diagonalization with overlap
     ethr =  1.74E-09,  avg # of iterations =  2.1

     negative rho (up, down):  9.620E-04 0.000E+00

     total cpu time spent up to now is      183.4 secs

     End of self-consistent calculation

          k = 0.0000 0.0000 0.0000 (  6979 PWs)   bands (ev):

   -69.2096 -39.1188 -35.2717 -35.2717 -35.2717 -15.2149 -15.2149 -15.2149
    10.1528  13.8670  13.8670  16.6592  16.6592  16.6592  19.0108  19.0108
    20.9595  20.9595

          k = 0.0000 0.0000 0.1000 (  6999 PWs)   bands (ev):

   -69.2093 -39.1163 -35.2747 -35.2712 -35.2712 -15.2501 -15.2128 -15.2128
    10.3616  13.9675  13.9748  16.6438  16.6438  16.7047  18.8833  19.0582
    20.6596  20.6596

          k = 0.0000 0.0000 0.2000 (  6976 PWs)   bands (ev):

   -69.2084 -39.1096 -35.2825 -35.2700 -35.2700 -15.3417 -15.2072 -15.2072
    10.9632  14.2448  14.2598  16.6106  16.6106  16.8301  18.5180  19.1558
    19.9917  19.9917

          k = 0.0000 0.0000 0.3000 (  6968 PWs)   bands (ev):

   -69.2073 -39.1013 -35.2922 -35.2685 -35.2685 -15.4533 -15.2004 -15.2004
    11.8808  14.5151  14.7121  16.5869  16.5869  17.0004  17.9715  19.1416
    19.2998  19.2998

          k = 0.0000 0.0000 0.4000 (  6984 PWs)   bands (ev):

   -69.2064 -39.0947 -35.2999 -35.2672 -35.2672 -15.5424 -15.1949 -15.1949
    12.9672  14.5179  15.2396  16.5879  16.5879  17.1544  17.3646  18.7959
    18.7959  18.8381

          k = 0.0000 0.0000-0.5000 (  6984 PWs)   bands (ev):

   -69.2061 -39.0921 -35.3029 -35.2668 -35.2668 -15.5761 -15.1927 -15.1927
    13.8512  14.0897  15.5490  16.5951  16.5951  17.0243  17.2182  18.6017
    18.6098  18.6098

          k = 0.0000 0.1000 0.1000 (  6975 PWs)   bands (ev):

   -69.2089 -39.1135 -35.2758 -35.2729 -35.2707 -15.2513 -15.2439 -15.2105
    10.5653  14.0612  14.0841  16.5450  16.6172  16.8167  18.8690  19.0235
    20.3424  20.3607

          k = 0.0000 0.1000 0.2000 (  6964 PWs)   bands (ev):

   -69.2081 -39.1064 -35.2832 -35.2730 -35.2695 -15.3385 -15.2407 -15.2047
    11.1505  14.3119  14.3774  16.4518  16.5544  16.9411  18.5979  19.1095
    19.7214  19.7865

          k = 0.0000 0.1000 0.3000 (  6977 PWs)   bands (ev):

   -69.2070 -39.0975 -35.2930 -35.2723 -35.2680 -15.4487 -15.2328 -15.1975
    12.0366  14.5816  14.7889  16.4109  16.4879  16.9993  18.1493  18.9312
    19.3031  19.3261

          k = 0.0000 0.1000 0.4000 (  6990 PWs)   bands (ev):

   -69.2061 -39.0903 -35.3010 -35.2716 -35.2669 -15.5367 -15.2263 -15.1917
    13.0723  14.5700  15.2635  16.4257  16.4336  16.9481  17.6901  18.4885
    19.0515  19.1725

          k = 0.0000 0.1000-0.5000 (  6974 PWs)   bands (ev):

   -69.2058 -39.0876 -35.3040 -35.2714 -35.2664 -15.5700 -15.2238 -15.1894
    13.8868  14.1685  15.5384  16.3624  16.4678  16.8869  17.4905  18.2963
    18.9933  19.0338

          k = 0.0000 0.2000 0.2000 (  6967 PWs)   bands (ev):

   -69.2072 -39.0979 -35.2866 -35.2791 -35.2684 -15.3385 -15.3192 -15.1981
    11.6804  14.4573  14.7144  16.2469  16.4371  16.9745  18.6923  19.0690
    19.1610  19.5088

          k = 0.0000 0.2000 0.3000 (  6977 PWs)   bands (ev):

   -69.2061 -39.0874 -35.2955 -35.2820 -35.2670 -15.4367 -15.3166 -15.1899
    12.4545  14.5837  15.1525  16.1163  16.3542  16.8034  18.5177  18.6536
    19.2398  19.4493

          k = 0.0000 0.2000 0.4000 (  6999 PWs)   bands (ev):

   -69.2053 -39.0789 -35.3038 -35.2831 -35.2658 -15.5217 -15.3079 -15.1833
    13.2976  14.5088  15.5469  16.1007  16.3933  16.5247  18.2061  18.3878
    19.3826  19.5778

          k = 0.0000 0.2000-0.5000 (  6976 PWs)   bands (ev):

   -69.2049 -39.0757 -35.3070 -35.2835 -35.2654 -15.5539 -15.3045 -15.1807
    13.8603  14.2416  15.7159  16.1626  16.3438  16.4701  18.1416  18.1918
    19.4143  19.6772

          k = 0.0000 0.3000 0.3000 (  6985 PWs)   bands (ev):

   -69.2051 -39.0749 -35.3001 -35.2924 -35.2656 -15.4299 -15.4109 -15.1805
    12.9885  14.4728  15.6945  15.8841  16.3987  16.4418  18.5199  18.8387
    19.1301  19.7643

          k = 0.0000 0.3000 0.4000 (  6985 PWs)   bands (ev):

   -69.2042 -39.0648 -35.3074 -35.2972 -35.2645 -15.5031 -15.4075 -15.1729
    13.4472  14.2808  15.7853  16.0912  16.1600  16.7672  18.3515  18.8590
    19.3422  20.1174

          k = 0.0000 0.3000-0.5000 (  6992 PWs)   bands (ev):

   -69.2039 -39.0609 -35.3108 -35.2984 -35.2641 -15.5340 -15.4030 -15.1700
    13.6619  14.1442  15.8268  15.8857  16.3134  17.1712  18.0903  18.8620
    19.5223  20.3177

          k = 0.0000 0.4000 0.4000 (  6978 PWs)   bands (ev):

   -69.2033 -39.0533 -35.3109 -35.3080 -35.2635 -15.4912 -15.4840 -15.1645
    13.4635  14.0814  15.5976  15.7579  16.8925  17.3503  18.5850  19.0568
    19.2676  20.5472

          k = 0.0000 0.4000-0.5000 (  6990 PWs)   bands (ev):

   -69.2030 -39.0489 -35.3139 -35.3105 -35.2631 -15.5178 -15.4818 -15.1613
    13.4496  14.0073  15.5797  15.5911  17.1827  18.0956  18.1423  19.1982
    19.3336  20.7676

          k = 0.0000-0.5000-0.5000 (  7000 PWs)   bands (ev):

   -69.2027 -39.0443 -35.3151 -35.3151 -35.2627 -15.5117 -15.5117 -15.1579
    13.3647  13.9509  15.4900  15.4900  17.7651  18.1968  18.7148  18.7148
    19.4574  20.9301

          k = 0.1000 0.1000 0.1000 (  6982 PWs)   bands (ev):

   -69.2086 -39.1106 -35.2753 -35.2753 -35.2715 -15.2516 -15.2418 -15.2418
    10.7649  14.1723  14.1723  16.5158  16.5158  16.8985  18.9338  18.9338
    19.8706  20.6338

          k = 0.1000 0.1000 0.2000 (  6961 PWs)   bands (ev):

   -69.2077 -39.1030 -35.2834 -35.2741 -35.2715 -15.3352 -15.2399 -15.2361
    11.3364  14.4266  14.4475  16.3880  16.4398  16.9558  18.6776  19.0680
    19.4052  19.9639

          k = 0.1000 0.1000 0.3000 (  6976 PWs)   bands (ev):

   -69.2066 -39.0937 -35.2936 -35.2725 -35.2714 -15.4442 -15.2305 -15.2291
    12.1960  14.7057  14.8112  16.3372  16.3377  16.8860  18.3029  18.9274
    19.2886  19.3765

          k = 0.1000 0.1000 0.4000 (  6991 PWs)   bands (ev):

   -69.2058 -39.0861 -35.3019 -35.2713 -35.2712 -15.5312 -15.2234 -15.2228
    13.1886  14.6619  15.2440  16.2074  16.4169  16.7661  17.9263  18.5942
    18.8161  19.5634

          k = 0.1000 0.1000-0.5000 (  6984 PWs)   bands (ev):

   -69.2054 -39.0832 -35.3050 -35.2712 -35.2708 -15.5642 -15.2213 -15.2199
    13.9489  14.2661  15.4938  16.0995  16.5422  16.6868  17.7568  18.3700
    18.6480  19.6880

          k = 0.1000 0.2000 0.2000 (  6969 PWs)   bands (ev):

   -69.2069 -39.0943 -35.2861 -35.2799 -35.2718 -15.3343 -15.3170 -15.2308
    11.8614  14.5870  14.7665  16.2005  16.3091  16.8240  18.7764  19.0437
    19.2037  19.6783

          k = 0.1000 0.2000 0.3000 (  6983 PWs)   bands (ev):

   -69.2058 -39.0836 -35.2955 -35.2820 -35.2710 -15.4326 -15.3136 -15.2221
    12.6240  14.7335  15.1551  16.0615  16.2157  16.5697  18.6389  18.8355
    19.2251  19.5760

          k = 0.1000 0.2000 0.4000 (  6970 PWs)   bands (ev):

   -69.2049 -39.0749 -35.3042 -35.2828 -35.2702 -15.5170 -15.3049 -15.2149
    13.4448  14.6568  15.4529  15.9828  16.2794  16.4356  18.3997  18.4740
    19.0326  20.0419

          k = 0.1000 0.2000-0.5000 (  6968 PWs)   bands (ev):

   -69.2046 -39.0715 -35.3076 -35.2830 -35.2699 -15.5491 -15.3016 -15.2121
    13.9839  14.3809  15.5810  15.9413  16.2954  16.5304  18.2037  18.3555
    18.8903  20.4129

          k = 0.1000 0.3000 0.3000 (  6984 PWs)   bands (ev):

   -69.2047 -39.0711 -35.2995 -35.2927 -35.2699 -15.4255 -15.4086 -15.2125
    13.1677  14.6232  15.6870  15.8411  16.2021  16.2535  18.6251  18.9928
    19.0876  19.9869

          k = 0.1000 0.3000 0.4000 (  6978 PWs)   bands (ev):

   -69.2039 -39.0610 -35.3072 -35.2969 -35.2690 -15.4995 -15.4047 -15.2047
    13.6186  14.4306  15.7338  15.8959  16.1725  16.6020  18.3882  18.9383
    19.1378  20.5283

          k = 0.1000 0.3000-0.5000 (  6968 PWs)   bands (ev):

   -69.2036 -39.0571 -35.3108 -35.2979 -35.2686 -15.5304 -15.4004 -15.2017
    13.8178  14.2991  15.7532  15.7667  16.2724  17.0244  18.1120  18.9938
    19.0298  20.7095

          k = 0.1000 0.4000 0.4000 (  6994 PWs)   bands (ev):

   -69.2030 -39.0497 -35.3103 -35.3077 -35.2679 -15.4881 -15.4817 -15.1964
    13.6328  14.2338  15.5657  15.6946  16.8185  17.1317  18.4663  18.8170
    19.3723  20.8224

          k = 0.1000 0.4000-0.5000 (  6994 PWs)   bands (ev):

   -69.2027 -39.0453 -35.3134 -35.3099 -35.2675 -15.5152 -15.4794 -15.1932
    13.6137  14.1621  15.5458  15.5530  17.0822  17.8044  18.0879  18.7788
    19.4424  20.9285

          k = 0.1000-0.5000-0.5000 (  7016 PWs)   bands (ev):

   -69.2024 -39.0408 -35.3145 -35.3145 -35.2671 -15.5094 -15.5094 -15.1900
    13.5306  14.1051  15.4646  15.4646  17.7689  18.1978  18.2040  18.2040
    19.5617  21.5820

          k = 0.2000 0.2000 0.2000 (  6974 PWs)   bands (ev):

   -69.2060 -39.0850 -35.2848 -35.2848 -35.2779 -15.3281 -15.3111 -15.3111
    12.3680  14.9108  14.9108  16.0805  16.0805  16.4310  18.9666  18.9666
    19.4615  19.9322

          k = 0.2000 0.2000 0.3000 (  6993 PWs)   bands (ev):

   -69.2049 -39.0735 -35.2957 -35.2831 -35.2805 -15.4218 -15.3075 -15.3038
    13.0836  15.1117  15.1611  15.9289  15.9528  16.1231  18.8447  18.9684
    19.3180  19.9267

          k = 0.2000 0.2000 0.4000 (  6991 PWs)   bands (ev):

   -69.2041 -39.0641 -35.3053 -35.2819 -35.2817 -15.5049 -15.2978 -15.2963
    13.8035  14.9406  15.3127  15.7847  16.0490  16.2659  18.5586  18.7083
    18.9267  20.4834

          k = 0.2000 0.2000-0.5000 (  6974 PWs)   bands (ev):

   -69.2038 -39.0606 -35.3090 -35.2824 -35.2812 -15.5365 -15.2956 -15.2920
    14.2307  14.6410  15.4185  15.7050  16.1277  16.4986  18.2211  18.6355
    18.8075  20.5930

          k = 0.2000 0.3000 0.3000 (  6994 PWs)   bands (ev):

   -69.2039 -39.0610 -35.2980 -35.2935 -35.2811 -15.4138 -15.4026 -15.2956
    13.6641  15.0186  15.6527  15.7395  15.7727  15.8879  18.7365  18.9276
    19.4195  20.1869

          k = 0.2000 0.3000 0.4000 (  6987 PWs)   bands (ev):

   -69.2030 -39.0508 -35.3068 -35.2960 -35.2805 -15.4900 -15.3974 -15.2873
    14.0903  14.7989  15.5832  15.6407  15.9948  16.2825  18.4326  18.6938
    19.3995  20.5235

          k = 0.2000 0.3000-0.5000 (  7006 PWs)   bands (ev):

   -69.2027 -39.0470 -35.3108 -35.2965 -35.2802 -15.5208 -15.3935 -15.2841
    14.2380  14.6706  15.5416  15.6094  16.0954  16.6855  18.1152  18.5985
    19.3710  20.6971

          k = 0.2000 0.4000 0.4000 (  7008 PWs)   bands (ev):

   -69.2022 -39.0401 -35.3087 -35.3069 -35.2795 -15.4799 -15.4756 -15.2794
    14.1105  14.6218  15.4915  15.5668  16.5802  16.5869  18.3634  18.4140
    19.7065  20.7836

          k = 0.2000 0.4000-0.5000 (  7010 PWs)   bands (ev):

   -69.2019 -39.0359 -35.3123 -35.3083 -35.2790 -15.5082 -15.4731 -15.2764
    14.0766  14.5596  15.4701  15.4742  16.7316  17.1345  18.0224  18.3739
    19.7730  20.9833

          k = 0.2000-0.5000-0.5000 (  7028 PWs)   bands (ev):

   -69.2016 -39.0317 -35.3128 -35.3128 -35.2786 -15.5033 -15.5033 -15.2734
    14.0015  14.5076  15.4084  15.4084  17.3539  17.3539  17.7787  18.1831
    19.8812  22.8573

          k = 0.3000 0.3000 0.3000 (  6992 PWs)   bands (ev):

   -69.2028 -39.0485 -35.2962 -35.2962 -35.2933 -15.4014 -15.3951 -15.3951
    14.3110  15.2844  15.5691  15.5691  15.6450  15.6450  18.6737  18.6737
    19.9776  19.9776

          k = 0.3000 0.3000 0.4000 (  6997 PWs)   bands (ev):

   -69.2020 -39.0383 -35.3065 -35.2949 -35.2947 -15.4783 -15.3890 -15.3875
    14.6590  15.0416  15.4869  15.5720  15.7248  16.0891  18.3373  18.4731
    19.9111  20.5334

          k = 0.3000 0.3000-0.5000 (  7008 PWs)   bands (ev):

   -69.2017 -39.0344 -35.3108 -35.2953 -35.2941 -15.5091 -15.3866 -15.3830
    14.6716  14.9568  15.4576  15.5390  15.8952  16.4303  18.0380  18.4033
    19.8971  20.7762

          k = 0.3000 0.4000 0.4000 (  6990 PWs)   bands (ev):

   -69.2012 -39.0281 -35.3067 -35.3060 -35.2937 -15.4697 -15.4681 -15.3807
    14.7728  15.0334  15.4272  15.5514  16.0091  16.2105  18.1565  18.2605
    20.2445  20.8070

          k = 0.3000 0.4000-0.5000 (  6988 PWs)   bands (ev):

   -69.2008 -39.0242 -35.3108 -35.3064 -35.2933 -15.4995 -15.4653 -15.3779
    14.7237  14.9988  15.4332  15.4488  16.2184  16.5003  17.9308  18.2040
    20.3024  21.0371

          k = 0.3000-0.5000-0.5000 (  6992 PWs)   bands (ev):

   -69.2005 -39.0203 -35.3108 -35.3108 -35.2927 -15.4959 -15.4959 -15.3752
    14.6878  14.9963  15.3718  15.3718  16.5961  16.5961  17.7908  18.1049
    20.4060  21.2574

          k = 0.4000 0.4000 0.4000 (  6971 PWs)   bands (ev):

   -69.2003 -39.0185 -35.3053 -35.3051 -35.3051 -15.4620 -15.4620 -15.4612
    15.0740  15.4318  15.4318  15.6542  15.8422  15.8422  18.0459  18.0459
    20.8383  20.8383

          k = 0.4000 0.4000-0.5000 (  6980 PWs)   bands (ev):

   -69.2000 -39.0148 -35.3096 -35.3050 -35.3045 -15.4925 -15.4597 -15.4583
    15.1909  15.2359  15.5114  15.6243  15.8259  16.0998  17.8747  18.0169
    20.8514  21.1218

          k = 0.4000-0.5000-0.5000 (  6956 PWs)   bands (ev):

   -69.1997 -39.0111 -35.3091 -35.3091 -35.3042 -15.4898 -15.4898 -15.4566
    15.3772  15.3957  15.4133  15.4133  16.0279  16.0279  17.8006  17.9322
    20.9981  21.2782

          k =-0.5000-0.5000-0.5000 (  6872 PWs)   bands (ev):

   -69.1994 -39.0076 -35.3085 -35.3085 -35.3085 -15.4875 -15.4875 -15.4875
    15.5177  15.5177  15.5177  15.7397  15.7397  15.7397  17.8044  17.8044
    21.2861  21.2861

     the Fermi energy is    17.7492 ev

!    total energy              =    -448.58680375 Ry
     estimated scf accuracy    <          1.0E-08 Ry
     smearing contrib. (-TS)   =      -0.00005142 Ry
     internal energy E=F+TS    =    -448.58675233 Ry

     The total energy is F=E-TS. E is the sum of the following terms:
     one-electron contribution =    -151.36088678 Ry
     hartree contribution      =      91.63991287 Ry
     xc contribution           =     -52.89141792 Ry
     ewald contribution        =    -259.82070277 Ry
     one-center paw contrib.   =     -76.15365773 Ry

     convergence has been achieved in  31 iterations

     negative rho (up, down):  9.620E-04 0.000E+00

     Forces acting on atoms (cartesian axes, Ry/au):

     atom    1 type  1   force =     0.00000000    0.00000000    0.00000000
     atom    2 type  2   force =     0.00000000    0.00000000    0.00000000

     Total force =     0.000000     Total SCF correction =     0.000000


     Computing stress (Cartesian axis) and pressure


     negative rho (up, down):  9.620E-04 0.000E+00
          total   stress  (Ry/bohr**3)                   (kbar)     P=       29.35
   0.00019953   0.00000000   0.00000000           29.35        0.00        0.00
   0.00000000   0.00019953   0.00000000            0.00       29.35        0.00
   0.00000000   0.00000000   0.00019953            0.00        0.00       29.35


     Writing all to output data dir ./out/TiFe15.save/ :
     XML data file, charge density, pseudopotentials, collected wavefunctions

     init_run     :      2.71s CPU      2.94s WALL (       1 calls)
     electrons    :    169.71s CPU    180.25s WALL (       1 calls)
     forces       :      0.97s CPU      1.09s WALL (       1 calls)
     stress       :      4.78s CPU      5.09s WALL (       1 calls)

     Called by init_run:
     wfcinit      :      1.85s CPU      1.91s WALL (       1 calls)
     potinit      :      0.21s CPU      0.25s WALL (       1 calls)
     hinit0       :      0.28s CPU      0.29s WALL (       1 calls)

     Called by electrons:
     c_bands      :    126.16s CPU    128.79s WALL (      31 calls)
     sum_band     :     28.11s CPU     32.43s WALL (      31 calls)
     v_of_rho     :      2.77s CPU      2.86s WALL (      32 calls)
     newd         :      9.11s CPU     12.67s WALL (      32 calls)
     PAW_pot      :      3.13s CPU      3.16s WALL (      32 calls)
     mix_rho      :      0.57s CPU      0.60s WALL (      31 calls)

     Called by c_bands:
     init_us_2    :      3.45s CPU      3.48s WALL (    3640 calls)
     cegterg      :    119.86s CPU    122.46s WALL (    1736 calls)

     Called by *egterg:
     cdiaghg      :      2.07s CPU      2.08s WALL (    6436 calls)
     h_psi        :     86.73s CPU     89.25s WALL (    6492 calls)
     s_psi        :      5.84s CPU      5.86s WALL (    6492 calls)
     g_psi        :      0.28s CPU      0.28s WALL (    4700 calls)

     Called by h_psi:
     h_psi:calbec :      9.53s CPU      9.71s WALL (    6492 calls)
     vloc_psi     :     70.43s CPU     72.76s WALL (    6492 calls)
     add_vuspsi   :      5.91s CPU      5.93s WALL (    6492 calls)

     General routines
     calbec       :     13.99s CPU     14.22s WALL (    9180 calls)
     fft          :      1.73s CPU      1.89s WALL (     439 calls)
     ffts         :      0.05s CPU      0.05s WALL (      63 calls)
     fftw         :     54.46s CPU     56.43s WALL (  190228 calls)
     interpolate  :      0.19s CPU      0.21s WALL (      32 calls)

     Parallel routines

     PWSCF        :   2m58.42s CPU   3m 9.72s WALL


   This run was terminated on:   1:26:30  30Oct2025            

=------------------------------------------------------------------------------=
   JOB DONE.
=------------------------------------------------------------------------------=
