
     Program PWSCF v.7.4.1 starts on 30Oct2025 at  1: 3:13 

     This program is part of the open-source Quantum ESPRESSO suite
     for quantum simulation of materials; please cite
         "P. Giannozzi et al., J. Phys.:Condens. Matter 21 395502 (2009);
         "P. Giannozzi et al., J. Phys.:Condens. Matter 29 465901 (2017);
         "P. Giannozzi et al., J. Chem. Phys. 152 154105 (2020);
          URL http://www.quantum-espresso.org", 
     in publications or presentations arising from this work. More details at
     http://www.quantum-espresso.org/quote

     Parallel version (MPI), running on     4 processors

     MPI processes distributed on     1 nodes
     5061 MiB available memory on the printing compute node when the environment starts

     Reading input from TiFe5.in

     Current dimensions of program PWSCF are:
     Max number of different atomic species (ntypx) = 10
     Max number of k-points (npk) =  40000
     Max angular momentum in pseudopotentials (lmaxx) =  4
     file Fe.pbe-spn-kjpaw_psl.0.2.1.UPF: wavefunction(s)  3D renormalized

     IMPORTANT: XC functional enforced from input :
     Exchange-correlation= PBE
                           (   1   4   3   4   0   0   0)
     Any further DFT definition will be discarded
     Please, verify this is what you really want

     Message from routine setup:
     using ibrav=0 with symmetry is DISCOURAGED, use correct ibrav instead

     R & G space division:  proc/nbgrp/npool/nimage =       4
     Subspace diagonalization in iterative solution of the eigenvalue problem:
     a serial algorithm will be used


     Parallelization info
     --------------------
     sticks:   dense  smooth     PW     G-vecs:    dense   smooth      PW
     Min         485     194     60                16277     4128     700
     Max         486     195     61                16282     4133     701
     Sum        1941     777    241                65117    16519    2801

     Using Slab Decomposition



     bravais-lattice index     =            0
     lattice parameter (alat)  =       5.5533  a.u.
     unit-cell volume          =     171.2590 (a.u.)^3
     number of atoms/cell      =            2
     number of atomic types    =            2
     number of electrons       =        28.00
     number of Kohn-Sham states=           18
     kinetic-energy cutoff     =      80.0000  Ry
     charge density cutoff     =     800.0000  Ry
     scf convergence threshold =      1.0E-08
     mixing beta               =       0.7000
     number of iterations used =            8  plain     mixing
     Exchange-correlation= PBE
                           (   1   4   3   4   0   0   0)

     celldm(1)=   5.553300  celldm(2)=   0.000000  celldm(3)=   0.000000
     celldm(4)=   0.000000  celldm(5)=   0.000000  celldm(6)=   0.000000

     crystal axes: (cart. coord. in units of alat)
               a(1) = (   1.000000   0.000000   0.000000 )  
               a(2) = (   0.000000   1.000000   0.000000 )  
               a(3) = (   0.000000   0.000000   1.000000 )  

     reciprocal axes: (cart. coord. in units 2 pi/alat)
               b(1) = (  1.000000  0.000000  0.000000 )  
               b(2) = (  0.000000  1.000000  0.000000 )  
               b(3) = (  0.000000  0.000000  1.000000 )  


     PseudoPot. # 1 for Fe read from file:
     /home/rafi/QE/qe-7.4.1/pseudo/Fe.pbe-spn-kjpaw_psl.0.2.1.UPF
     MD5 check sum: e86618425769142926afa95317d90200
     Pseudo is Projector augmented-wave + core cor, Zval = 16.0
     Generated using "atomic" code by A. Dal Corso  v.5.0.99 svn rev. 10869
     Shape of augmentation charge: PSQ
     Using radial grid of 1191 points,  6 beta functions with: 
                l(1) =   0
                l(2) =   0
                l(3) =   1
                l(4) =   1
                l(5) =   2
                l(6) =   2
     Q(r) pseudized with 0 coefficients 


     PseudoPot. # 2 for Ti read from file:
     /home/rafi/QE/qe-7.4.1/pseudo/ti_pbe_v1.4.uspp.F.UPF
     MD5 check sum: 88a00a6731bd790ddea75d31a80cb452
     Pseudo is Ultrasoft + core correction, Zval = 12.0
     Generated by new atomic code, or converted to UPF format
     Using radial grid of  851 points,  6 beta functions with: 
                l(1) =   0
                l(2) =   0
                l(3) =   1
                l(4) =   1
                l(5) =   2
                l(6) =   2
     Q(r) pseudized with  6 coefficients,  rinner =    1.000   1.000   1.000
                                                       1.000   1.000

     atomic species   valence    mass     pseudopotential
     Fe               16.00    55.84500     Fe( 1.00)
     Ti               12.00    47.86700     Ti( 1.00)

     48 Sym. Ops., with inversion, found



   Cartesian axes

     site n.     atom                  positions (alat units)
         1        Fe     tau(   1) = (   0.5000000   0.5000000   0.5000000  )
         2        Ti     tau(   2) = (   0.0000000   0.0000000   0.0000000  )

     number of k points=    56  Marzari-Vanderbilt smearing, width (Ry)=  0.0050
                       cart. coord. in units 2pi/alat
        k(    1) = (   0.0000000   0.0000000   0.0000000), wk =   0.0020000
        k(    2) = (   0.0000000   0.0000000   0.1000000), wk =   0.0120000
        k(    3) = (   0.0000000   0.0000000   0.2000000), wk =   0.0120000
        k(    4) = (   0.0000000   0.0000000   0.3000000), wk =   0.0120000
        k(    5) = (   0.0000000   0.0000000   0.4000000), wk =   0.0120000
        k(    6) = (   0.0000000   0.0000000  -0.5000000), wk =   0.0060000
        k(    7) = (   0.0000000   0.1000000   0.1000000), wk =   0.0240000
        k(    8) = (   0.0000000   0.1000000   0.2000000), wk =   0.0480000
        k(    9) = (   0.0000000   0.1000000   0.3000000), wk =   0.0480000
        k(   10) = (   0.0000000   0.1000000   0.4000000), wk =   0.0480000
        k(   11) = (   0.0000000   0.1000000  -0.5000000), wk =   0.0240000
        k(   12) = (   0.0000000   0.2000000   0.2000000), wk =   0.0240000
        k(   13) = (   0.0000000   0.2000000   0.3000000), wk =   0.0480000
        k(   14) = (   0.0000000   0.2000000   0.4000000), wk =   0.0480000
        k(   15) = (   0.0000000   0.2000000  -0.5000000), wk =   0.0240000
        k(   16) = (   0.0000000   0.3000000   0.3000000), wk =   0.0240000
        k(   17) = (   0.0000000   0.3000000   0.4000000), wk =   0.0480000
        k(   18) = (   0.0000000   0.3000000  -0.5000000), wk =   0.0240000
        k(   19) = (   0.0000000   0.4000000   0.4000000), wk =   0.0240000
        k(   20) = (   0.0000000   0.4000000  -0.5000000), wk =   0.0240000
        k(   21) = (   0.0000000  -0.5000000  -0.5000000), wk =   0.0060000
        k(   22) = (   0.1000000   0.1000000   0.1000000), wk =   0.0160000
        k(   23) = (   0.1000000   0.1000000   0.2000000), wk =   0.0480000
        k(   24) = (   0.1000000   0.1000000   0.3000000), wk =   0.0480000
        k(   25) = (   0.1000000   0.1000000   0.4000000), wk =   0.0480000
        k(   26) = (   0.1000000   0.1000000  -0.5000000), wk =   0.0240000
        k(   27) = (   0.1000000   0.2000000   0.2000000), wk =   0.0480000
        k(   28) = (   0.1000000   0.2000000   0.3000000), wk =   0.0960000
        k(   29) = (   0.1000000   0.2000000   0.4000000), wk =   0.0960000
        k(   30) = (   0.1000000   0.2000000  -0.5000000), wk =   0.0480000
        k(   31) = (   0.1000000   0.3000000   0.3000000), wk =   0.0480000
        k(   32) = (   0.1000000   0.3000000   0.4000000), wk =   0.0960000
        k(   33) = (   0.1000000   0.3000000  -0.5000000), wk =   0.0480000
        k(   34) = (   0.1000000   0.4000000   0.4000000), wk =   0.0480000
        k(   35) = (   0.1000000   0.4000000  -0.5000000), wk =   0.0480000
        k(   36) = (   0.1000000  -0.5000000  -0.5000000), wk =   0.0120000
        k(   37) = (   0.2000000   0.2000000   0.2000000), wk =   0.0160000
        k(   38) = (   0.2000000   0.2000000   0.3000000), wk =   0.0480000
        k(   39) = (   0.2000000   0.2000000   0.4000000), wk =   0.0480000
        k(   40) = (   0.2000000   0.2000000  -0.5000000), wk =   0.0240000
        k(   41) = (   0.2000000   0.3000000   0.3000000), wk =   0.0480000
        k(   42) = (   0.2000000   0.3000000   0.4000000), wk =   0.0960000
        k(   43) = (   0.2000000   0.3000000  -0.5000000), wk =   0.0480000
        k(   44) = (   0.2000000   0.4000000   0.4000000), wk =   0.0480000
        k(   45) = (   0.2000000   0.4000000  -0.5000000), wk =   0.0480000
        k(   46) = (   0.2000000  -0.5000000  -0.5000000), wk =   0.0120000
        k(   47) = (   0.3000000   0.3000000   0.3000000), wk =   0.0160000
        k(   48) = (   0.3000000   0.3000000   0.4000000), wk =   0.0480000
        k(   49) = (   0.3000000   0.3000000  -0.5000000), wk =   0.0240000
        k(   50) = (   0.3000000   0.4000000   0.4000000), wk =   0.0480000
        k(   51) = (   0.3000000   0.4000000  -0.5000000), wk =   0.0480000
        k(   52) = (   0.3000000  -0.5000000  -0.5000000), wk =   0.0120000
        k(   53) = (   0.4000000   0.4000000   0.4000000), wk =   0.0160000
        k(   54) = (   0.4000000   0.4000000  -0.5000000), wk =   0.0240000
        k(   55) = (   0.4000000  -0.5000000  -0.5000000), wk =   0.0120000
        k(   56) = (  -0.5000000  -0.5000000  -0.5000000), wk =   0.0020000

     Dense  grid:    65117 G-vectors     FFT dimensions: (  50,  50,  50)

     Smooth grid:    16519 G-vectors     FFT dimensions: (  32,  32,  32)

     Estimated max dynamical RAM per process >      72.25 MB

     Estimated total dynamical RAM >     289.02 MB

     Check: negative core charge=   -0.000013

     Initial potential from superposition of free atoms

     starting charge      26.9995, renormalised to      28.0000

     negative rho (up, down):  1.188E-03 0.000E+00
     Starting wfcs are   23 randomized atomic wfcs
     Checking if some PAW data can be deallocated... 

     total cpu time spent up to now is        1.2 secs

     Self-consistent Calculation

     iteration #  1     ecut=    80.00 Ry     beta= 0.70
     Davidson diagonalization with overlap
     ethr =  1.00E-02,  avg # of iterations =  2.2

     negative rho (up, down):  2.171E-04 0.000E+00

     total cpu time spent up to now is        2.7 secs

     total energy              =    -434.91125800 Ry
     estimated scf accuracy    <      17.44202451 Ry

     iteration #  2     ecut=    80.00 Ry     beta= 0.70
     Davidson diagonalization with overlap
     ethr =  1.00E-02,  avg # of iterations =  6.0

     negative rho (up, down):  7.203E-05 0.000E+00

     total cpu time spent up to now is        5.2 secs

     WARNING: integrated charge=    28.00016061, expected=    28.00000000

     total energy              =    -448.53815594 Ry
     estimated scf accuracy    <      65.92758258 Ry

     iteration #  3     ecut=    80.00 Ry     beta= 0.70
     Davidson diagonalization with overlap
     ethr =  1.00E-02,  avg # of iterations =  3.2

     negative rho (up, down):  1.533E-04 0.000E+00

     total cpu time spent up to now is        7.1 secs

     WARNING: integrated charge=    28.00002227, expected=    28.00000000

     total energy              =    -448.58612918 Ry
     estimated scf accuracy    <      16.75955135 Ry

     iteration #  4     ecut=    80.00 Ry     beta= 0.70
     Davidson diagonalization with overlap
     ethr =  1.00E-02,  avg # of iterations =  2.1

     negative rho (up, down):  1.987E-04 0.000E+00

     total cpu time spent up to now is        8.6 secs

     WARNING: integrated charge=    28.00002377, expected=    28.00000000

     total energy              =    -449.10466617 Ry
     estimated scf accuracy    <       4.83005043 Ry

     iteration #  5     ecut=    80.00 Ry     beta= 0.70
     Davidson diagonalization with overlap
     ethr =  1.00E-02,  avg # of iterations =  1.0

     negative rho (up, down):  2.289E-04 0.000E+00

     total cpu time spent up to now is        9.9 secs

     WARNING: integrated charge=    28.00002663, expected=    28.00000000

     total energy              =    -449.12030407 Ry
     estimated scf accuracy    <       4.38504356 Ry

     iteration #  6     ecut=    80.00 Ry     beta= 0.70
     Davidson diagonalization with overlap
     ethr =  1.00E-02,  avg # of iterations =  1.0

     negative rho (up, down):  9.193E-04 0.000E+00

     total cpu time spent up to now is       11.2 secs

     total energy              =    -447.97313493 Ry
     estimated scf accuracy    <       4.48199446 Ry

     iteration #  7     ecut=    80.00 Ry     beta= 0.70
     Davidson diagonalization with overlap
     ethr =  1.00E-02,  avg # of iterations =  2.9

     negative rho (up, down):  8.542E-04 0.000E+00

     total cpu time spent up to now is       12.6 secs

     total energy              =    -448.54819419 Ry
     estimated scf accuracy    <       1.80218107 Ry

     iteration #  8     ecut=    80.00 Ry     beta= 0.70
     Davidson diagonalization with overlap
     ethr =  6.44E-03,  avg # of iterations =  1.0

     negative rho (up, down):  6.699E-04 0.000E+00

     total cpu time spent up to now is       13.9 secs

     total energy              =    -448.57844101 Ry
     estimated scf accuracy    <       0.34769064 Ry

     iteration #  9     ecut=    80.00 Ry     beta= 0.70
     Davidson diagonalization with overlap
     ethr =  1.24E-03,  avg # of iterations =  2.3

     negative rho (up, down):  8.213E-04 0.000E+00

     total cpu time spent up to now is       15.3 secs

     WARNING: integrated charge=    28.00000815, expected=    28.00000000

     total energy              =    -448.57021239 Ry
     estimated scf accuracy    <       0.13936404 Ry

     iteration # 10     ecut=    80.00 Ry     beta= 0.70
     Davidson diagonalization with overlap
     ethr =  4.98E-04,  avg # of iterations =  2.2

     negative rho (up, down):  1.475E-03 0.000E+00

     total cpu time spent up to now is       16.8 secs

     WARNING: integrated charge=    28.00000582, expected=    28.00000000

     total energy              =    -448.66262171 Ry
     estimated scf accuracy    <       0.04179222 Ry

     iteration # 11     ecut=    80.00 Ry     beta= 0.70
     Davidson diagonalization with overlap
     ethr =  1.49E-04,  avg # of iterations =  6.6

     negative rho (up, down):  1.145E-03 0.000E+00

     total cpu time spent up to now is       19.1 secs

     WARNING: integrated charge=    27.99999371, expected=    28.00000000

     total energy              =    -448.90773035 Ry
     estimated scf accuracy    <      15.05278464 Ry

     iteration # 12     ecut=    80.00 Ry     beta= 0.70
     Davidson diagonalization with overlap
     ethr =  1.49E-04,  avg # of iterations =  4.1

     negative rho (up, down):  7.291E-04 0.000E+00

     total cpu time spent up to now is       20.8 secs

     WARNING: integrated charge=    28.00000394, expected=    28.00000000

     total energy              =    -447.89577465 Ry
     estimated scf accuracy    <       9.21539406 Ry

     iteration # 13     ecut=    80.00 Ry     beta= 0.70
     Davidson diagonalization with overlap
     ethr =  1.49E-04,  avg # of iterations =  6.2

     negative rho (up, down):  9.678E-04 0.000E+00

     total cpu time spent up to now is       23.1 secs

     WARNING: integrated charge=    27.99999636, expected=    28.00000000

     total energy              =    -448.52822419 Ry
     estimated scf accuracy    <       0.38044232 Ry

     iteration # 14     ecut=    80.00 Ry     beta= 0.70
     Davidson diagonalization with overlap
     ethr =  1.49E-04,  avg # of iterations =  4.9

     negative rho (up, down):  8.322E-04 0.000E+00

     total cpu time spent up to now is       25.0 secs

     total energy              =    -448.54589645 Ry
     estimated scf accuracy    <       0.36328956 Ry

     iteration # 15     ecut=    80.00 Ry     beta= 0.70
     Davidson diagonalization with overlap
     ethr =  1.49E-04,  avg # of iterations =  4.1

     negative rho (up, down):  9.179E-04 0.000E+00

     total cpu time spent up to now is       26.6 secs

     total energy              =    -448.58105392 Ry
     estimated scf accuracy    <       0.05613443 Ry

     iteration # 16     ecut=    80.00 Ry     beta= 0.70
     Davidson diagonalization with overlap
     ethr =  1.49E-04,  avg # of iterations =  1.7

     negative rho (up, down):  9.253E-04 0.000E+00

     total cpu time spent up to now is       28.0 secs

     WARNING: integrated charge=    27.99999691, expected=    28.00000000

     total energy              =    -448.58433206 Ry
     estimated scf accuracy    <       0.00219597 Ry

     iteration # 17     ecut=    80.00 Ry     beta= 0.70
     Davidson diagonalization with overlap
     ethr =  7.84E-06,  avg # of iterations =  2.6

     negative rho (up, down):  9.723E-04 0.000E+00

     total cpu time spent up to now is       29.7 secs

     total energy              =    -448.58277158 Ry
     estimated scf accuracy    <       0.01539789 Ry

     iteration # 18     ecut=    80.00 Ry     beta= 0.70
     Davidson diagonalization with overlap
     ethr =  7.84E-06,  avg # of iterations =  4.6

     negative rho (up, down):  9.496E-04 0.000E+00

     total cpu time spent up to now is       31.5 secs

     total energy              =    -448.58489009 Ry
     estimated scf accuracy    <       0.01815798 Ry

     iteration # 19     ecut=    80.00 Ry     beta= 0.70
     Davidson diagonalization with overlap
     ethr =  7.84E-06,  avg # of iterations =  2.8

     negative rho (up, down):  9.827E-04 0.000E+00

     total cpu time spent up to now is       32.9 secs

     total energy              =    -448.58674412 Ry
     estimated scf accuracy    <       0.00433885 Ry

     iteration # 20     ecut=    80.00 Ry     beta= 0.70
     Davidson diagonalization with overlap
     ethr =  7.84E-06,  avg # of iterations =  3.0

     negative rho (up, down):  8.291E-04 0.000E+00

     total cpu time spent up to now is       34.3 secs

     total energy              =    -448.58021438 Ry
     estimated scf accuracy    <       0.02768762 Ry

     iteration # 21     ecut=    80.00 Ry     beta= 0.70
     Davidson diagonalization with overlap
     ethr =  7.84E-06,  avg # of iterations =  5.0

     negative rho (up, down):  8.994E-04 0.000E+00

     total cpu time spent up to now is       36.3 secs

     total energy              =    -448.58299243 Ry
     estimated scf accuracy    <       0.01517957 Ry

     iteration # 22     ecut=    80.00 Ry     beta= 0.70
     Davidson diagonalization with overlap
     ethr =  7.84E-06,  avg # of iterations =  4.1

     negative rho (up, down):  8.824E-04 0.000E+00

     total cpu time spent up to now is       38.2 secs

     total energy              =    -448.58467208 Ry
     estimated scf accuracy    <       0.00247407 Ry

     iteration # 23     ecut=    80.00 Ry     beta= 0.70
     Davidson diagonalization with overlap
     ethr =  7.84E-06,  avg # of iterations =  1.1

     negative rho (up, down):  8.828E-04 0.000E+00

     total cpu time spent up to now is       39.4 secs

     total energy              =    -448.58477505 Ry
     estimated scf accuracy    <       0.00011072 Ry

     iteration # 24     ecut=    80.00 Ry     beta= 0.70
     Davidson diagonalization with overlap
     ethr =  3.95E-07,  avg # of iterations =  3.7

     negative rho (up, down):  8.815E-04 0.000E+00

     total cpu time spent up to now is       40.9 secs

     total energy              =    -448.58479414 Ry
     estimated scf accuracy    <       0.00000193 Ry

     iteration # 25     ecut=    80.00 Ry     beta= 0.70
     Davidson diagonalization with overlap
     ethr =  6.89E-09,  avg # of iterations =  4.2

     negative rho (up, down):  8.815E-04 0.000E+00

     total cpu time spent up to now is       42.6 secs

     total energy              =    -448.58479496 Ry
     estimated scf accuracy    <       0.00001040 Ry

     iteration # 26     ecut=    80.00 Ry     beta= 0.70
     Davidson diagonalization with overlap
     ethr =  6.89E-09,  avg # of iterations =  1.2

     negative rho (up, down):  8.817E-04 0.000E+00

     total cpu time spent up to now is       43.8 secs

     total energy              =    -448.58479443 Ry
     estimated scf accuracy    <       0.00000771 Ry

     iteration # 27     ecut=    80.00 Ry     beta= 0.70
     Davidson diagonalization with overlap
     ethr =  6.89E-09,  avg # of iterations =  1.9

     negative rho (up, down):  8.817E-04 0.000E+00

     total cpu time spent up to now is       45.1 secs

     total energy              =    -448.58479446 Ry
     estimated scf accuracy    <       0.00000159 Ry

     iteration # 28     ecut=    80.00 Ry     beta= 0.70
     Davidson diagonalization with overlap
     ethr =  5.69E-09,  avg # of iterations =  1.2

     negative rho (up, down):  8.816E-04 0.000E+00

     total cpu time spent up to now is       46.3 secs

     total energy              =    -448.58479450 Ry
     estimated scf accuracy    <       0.00000014 Ry

     iteration # 29     ecut=    80.00 Ry     beta= 0.70
     Davidson diagonalization with overlap
     ethr =  4.95E-10,  avg # of iterations =  4.1

     negative rho (up, down):  8.816E-04 0.000E+00

     total cpu time spent up to now is       47.8 secs

     total energy              =    -448.58479452 Ry
     estimated scf accuracy    <       0.00000011 Ry

     iteration # 30     ecut=    80.00 Ry     beta= 0.70
     Davidson diagonalization with overlap
     ethr =  3.75E-10,  avg # of iterations =  1.1

     negative rho (up, down):  8.816E-04 0.000E+00

     total cpu time spent up to now is       49.0 secs

     End of self-consistent calculation

          k = 0.0000 0.0000 0.0000 (  2103 PWs)   bands (ev):

   -69.2084 -39.1184 -35.2690 -35.2690 -35.2690 -15.2143 -15.2143 -15.2143
    10.1540  13.8676  13.8676  16.6601  16.6601  16.6601  19.0116  19.0116
    20.9607  20.9607

          k = 0.0000 0.0000 0.1000 (  2072 PWs)   bands (ev):

   -69.2080 -39.1159 -35.2717 -35.2684 -35.2684 -15.2495 -15.2122 -15.2122
    10.3629  13.9680  13.9754  16.6447  16.6447  16.7056  18.8841  19.0590
    20.6611  20.6611

          k = 0.0000 0.0000 0.2000 (  2048 PWs)   bands (ev):

   -69.2071 -39.1092 -35.2794 -35.2670 -35.2670 -15.3411 -15.2066 -15.2066
    10.9647  14.2457  14.2604  16.6114  16.6114  16.8309  18.5188  19.1568
    19.9933  19.9933

          k = 0.0000 0.0000 0.3000 (  2052 PWs)   bands (ev):

   -69.2061 -39.1009 -35.2893 -35.2654 -35.2654 -15.4527 -15.1998 -15.1998
    11.8826  14.5164  14.7127  16.5878  16.5878  17.0012  17.9722  19.1427
    19.3014  19.3014

          k = 0.0000 0.0000 0.4000 (  2056 PWs)   bands (ev):

   -69.2052 -39.0943 -35.2970 -35.2642 -35.2642 -15.5418 -15.1942 -15.1942
    12.9692  14.5197  15.2402  16.5887  16.5887  17.1552  17.3654  18.7975
    18.7975  18.8392

          k = 0.0000 0.0000-0.5000 (  2088 PWs)   bands (ev):

   -69.2049 -39.0917 -35.3003 -35.2639 -35.2639 -15.5756 -15.1921 -15.1921
    13.8525  14.0923  15.5496  16.5959  16.5959  17.0250  17.2190  18.6026
    18.6114  18.6114

          k = 0.0000 0.1000 0.1000 (  2055 PWs)   bands (ev):

   -69.2077 -39.1131 -35.2729 -35.2698 -35.2678 -15.2507 -15.2433 -15.2099
    10.5668  14.0618  14.0847  16.5458  16.6180  16.8175  18.8699  19.0243
    20.3439  20.3623

          k = 0.0000 0.1000 0.2000 (  2055 PWs)   bands (ev):

   -69.2068 -39.1060 -35.2802 -35.2700 -35.2665 -15.3379 -15.2401 -15.2041
    11.1520  14.3126  14.3782  16.4527  16.5553  16.9419  18.5987  19.1105
    19.7229  19.7881

          k = 0.0000 0.1000 0.3000 (  2056 PWs)   bands (ev):

   -69.2057 -39.0971 -35.2901 -35.2693 -35.2650 -15.4481 -15.2321 -15.1969
    12.0384  14.5828  14.7896  16.4117  16.4887  17.0002  18.1501  18.9326
    19.3047  19.3275

          k = 0.0000 0.1000 0.4000 (  2065 PWs)   bands (ev):

   -69.2049 -39.0899 -35.2982 -35.2687 -35.2639 -15.5361 -15.2257 -15.1910
    13.0742  14.5717  15.2642  16.4266  16.4344  16.9490  17.6909  18.4898
    19.0530  19.1739

          k = 0.0000 0.1000-0.5000 (  2074 PWs)   bands (ev):

   -69.2045 -39.0872 -35.3013 -35.2684 -35.2635 -15.5694 -15.2232 -15.1888
    13.8881  14.1711  15.5391  16.3634  16.4686  16.8878  17.4913  18.2974
    18.9948  19.0353

          k = 0.0000 0.2000 0.2000 (  2077 PWs)   bands (ev):

   -69.2060 -39.0975 -35.2839 -35.2762 -35.2655 -15.3379 -15.3186 -15.1975
    11.6820  14.4580  14.7154  16.2477  16.4380  16.9753  18.6931  19.0699
    19.1625  19.5104

          k = 0.0000 0.2000 0.3000 (  2063 PWs)   bands (ev):

   -69.2049 -39.0870 -35.2926 -35.2790 -35.2640 -15.4361 -15.3160 -15.1893
    12.4562  14.5847  15.1537  16.1172  16.3551  16.8042  18.5186  18.6551
    19.2410  19.4507

          k = 0.0000 0.2000 0.4000 (  2069 PWs)   bands (ev):

   -69.2040 -39.0786 -35.3010 -35.2802 -35.2629 -15.5211 -15.3073 -15.1827
    13.2993  14.5101  15.5480  16.1015  16.3946  16.5255  18.2071  18.3888
    19.3842  19.5792

          k = 0.0000 0.2000-0.5000 (  2072 PWs)   bands (ev):

   -69.2037 -39.0753 -35.3043 -35.2806 -35.2624 -15.5533 -15.3039 -15.1801
    13.8615  14.2435  15.7170  16.1634  16.3446  16.4719  18.1426  18.1927
    19.4162  19.6785

          k = 0.0000 0.3000 0.3000 (  2061 PWs)   bands (ev):

   -69.2038 -39.0745 -35.2971 -35.2895 -35.2626 -15.4293 -15.4103 -15.1799
    12.9901  14.4738  15.6959  15.8849  16.4000  16.4427  18.5214  18.8396
    19.1314  19.7657

          k = 0.0000 0.3000 0.4000 (  2075 PWs)   bands (ev):

   -69.2030 -39.0644 -35.3046 -35.2944 -35.2616 -15.5025 -15.4069 -15.1723
    13.4485  14.2818  15.7861  16.0921  16.1614  16.7692  18.3528  18.8599
    19.3441  20.1187

          k = 0.0000 0.3000-0.5000 (  2070 PWs)   bands (ev):

   -69.2026 -39.0605 -35.3080 -35.2955 -35.2612 -15.5334 -15.4024 -15.1694
    13.6629  14.1454  15.8276  15.8866  16.3149  17.1740  18.0912  18.8630
    19.5248  20.3189

          k = 0.0000 0.4000 0.4000 (  2077 PWs)   bands (ev):

   -69.2021 -39.0529 -35.3081 -35.3052 -35.2606 -15.4906 -15.4834 -15.1639
    13.4646  14.0822  15.5983  15.7587  16.8942  17.3525  18.5869  19.0592
    19.2687  20.5484

          k = 0.0000 0.4000-0.5000 (  2076 PWs)   bands (ev):

   -69.2018 -39.0485 -35.3110 -35.3077 -35.2602 -15.5172 -15.4812 -15.1606
    13.4505  14.0081  15.5805  15.5919  17.1842  18.0965  18.1462  19.2014
    19.3346  20.7688

          k = 0.0000-0.5000-0.5000 (  2048 PWs)   bands (ev):

   -69.2015 -39.0439 -35.3120 -35.3120 -35.2598 -15.5111 -15.5111 -15.1573
    13.3657  13.9516  15.4908  15.4908  17.7658  18.1977  18.7199  18.7199
    19.4584  20.9313

          k = 0.1000 0.1000 0.1000 (  2070 PWs)   bands (ev):

   -69.2074 -39.1102 -35.2725 -35.2725 -35.2684 -15.2510 -15.2412 -15.2412
    10.7664  14.1730  14.1730  16.5167  16.5167  16.8993  18.9347  18.9347
    19.8722  20.6351

          k = 0.1000 0.1000 0.2000 (  2064 PWs)   bands (ev):

   -69.2065 -39.1026 -35.2805 -35.2711 -35.2686 -15.3346 -15.2393 -15.2355
    11.3380  14.4272  14.4484  16.3888  16.4407  16.9566  18.6785  19.0690
    19.4067  19.9654

          k = 0.1000 0.1000 0.3000 (  2047 PWs)   bands (ev):

   -69.2054 -39.0933 -35.2906 -35.2694 -35.2684 -15.4436 -15.2299 -15.2285
    12.1978  14.7070  14.8119  16.3381  16.3386  16.8869  18.3037  18.9288
    19.2902  19.3779

          k = 0.1000 0.1000 0.4000 (  2058 PWs)   bands (ev):

   -69.2045 -39.0857 -35.2990 -35.2683 -35.2682 -15.5306 -15.2228 -15.2222
    13.1905  14.6637  15.2448  16.2082  16.4179  16.7670  17.9271  18.5954
    18.8177  19.5650

          k = 0.1000 0.1000-0.5000 (  2068 PWs)   bands (ev):

   -69.2042 -39.0828 -35.3023 -35.2683 -35.2678 -15.5637 -15.2207 -15.2193
    13.9502  14.2685  15.4945  16.1003  16.5434  16.6877  17.7576  18.3709
    18.6496  19.6897

          k = 0.1000 0.2000 0.2000 (  2068 PWs)   bands (ev):

   -69.2056 -39.0939 -35.2833 -35.2770 -35.2688 -15.3337 -15.3164 -15.2302
    11.8631  14.5878  14.7675  16.2013  16.3099  16.8249  18.7773  19.0447
    19.2053  19.6799

          k = 0.1000 0.2000 0.3000 (  2058 PWs)   bands (ev):

   -69.2046 -39.0832 -35.2925 -35.2791 -35.2680 -15.4320 -15.3130 -15.2215
    12.6258  14.7345  15.1563  16.0623  16.2167  16.5706  18.6398  18.8369
    19.2265  19.5775

          k = 0.1000 0.2000 0.4000 (  2070 PWs)   bands (ev):

   -69.2037 -39.0745 -35.3014 -35.2799 -35.2673 -15.5164 -15.3043 -15.2143
    13.4465  14.6581  15.4540  15.9836  16.2805  16.4367  18.4007  18.4750
    19.0341  20.0435

          k = 0.1000 0.2000-0.5000 (  2074 PWs)   bands (ev):

   -69.2034 -39.0711 -35.3049 -35.2801 -35.2669 -15.5485 -15.3009 -15.2115
    13.9852  14.3828  15.5821  15.9422  16.2963  16.5322  18.2047  18.3564
    18.8918  20.4146

          k = 0.1000 0.3000 0.3000 (  2070 PWs)   bands (ev):

   -69.2035 -39.0707 -35.2966 -35.2898 -35.2670 -15.4249 -15.4080 -15.2119
    13.1694  14.6242  15.6884  15.8419  16.2032  16.2545  18.6265  18.9938
    19.0890  19.9884

          k = 0.1000 0.3000 0.4000 (  2074 PWs)   bands (ev):

   -69.2027 -39.0606 -35.3044 -35.2941 -35.2661 -15.4989 -15.4041 -15.2041
    13.6200  14.4317  15.7346  15.8969  16.1738  16.6040  18.3895  18.9395
    19.1393  20.5299

          k = 0.1000 0.3000-0.5000 (  2072 PWs)   bands (ev):

   -69.2023 -39.0567 -35.3080 -35.2950 -35.2656 -15.5298 -15.3998 -15.2011
    13.8190  14.3002  15.7540  15.7677  16.2738  17.0272  18.1128  18.9947
    19.0316  20.7107

          k = 0.1000 0.4000 0.4000 (  2076 PWs)   bands (ev):

   -69.2018 -39.0493 -35.3075 -35.3049 -35.2650 -15.4875 -15.4811 -15.1958
    13.6339  14.2347  15.5665  15.6955  16.8202  17.1340  18.4679  18.8191
    19.3733  20.8236

          k = 0.1000 0.4000-0.5000 (  2078 PWs)   bands (ev):

   -69.2015 -39.0450 -35.3106 -35.3071 -35.2646 -15.5146 -15.4788 -15.1926
    13.6148  14.1629  15.5466  15.5538  17.0839  17.8078  18.0889  18.7810
    19.4434  20.9297

          k = 0.1000-0.5000-0.5000 (  2052 PWs)   bands (ev):

   -69.2012 -39.0405 -35.3114 -35.3114 -35.2641 -15.5088 -15.5088 -15.1894
    13.5317  14.1058  15.4654  15.4654  17.7695  18.1988  18.2081  18.2081
    19.5627  21.5839

          k = 0.2000 0.2000 0.2000 (  2076 PWs)   bands (ev):

   -69.2048 -39.0846 -35.2819 -35.2819 -35.2751 -15.3275 -15.3105 -15.3105
    12.3697  14.9117  14.9117  16.0813  16.0813  16.4319  18.9676  18.9676
    19.4630  19.9336

          k = 0.2000 0.2000 0.3000 (  2068 PWs)   bands (ev):

   -69.2037 -39.0731 -35.2928 -35.2802 -35.2776 -15.4212 -15.3069 -15.3032
    13.0855  15.1127  15.1624  15.9297  15.9537  16.1240  18.8458  18.9697
    19.3193  19.9282

          k = 0.2000 0.2000 0.4000 (  2068 PWs)   bands (ev):

   -69.2029 -39.0638 -35.3024 -35.2790 -35.2787 -15.5043 -15.2972 -15.2957
    13.8052  14.9421  15.3138  15.7855  16.0500  16.2674  18.5598  18.7096
    18.9278  20.4846

          k = 0.2000 0.2000-0.5000 (  2074 PWs)   bands (ev):

   -69.2025 -39.0602 -35.3062 -35.2795 -35.2783 -15.5359 -15.2950 -15.2914
    14.2321  14.6426  15.4196  15.7058  16.1286  16.5007  18.2220  18.6370
    18.8084  20.5942

          k = 0.2000 0.3000 0.3000 (  2074 PWs)   bands (ev):

   -69.2027 -39.0606 -35.2952 -35.2907 -35.2782 -15.4132 -15.4020 -15.2950
    13.6660  15.0197  15.6542  15.7403  15.7737  15.8888  18.7378  18.9290
    19.4206  20.1881

          k = 0.2000 0.3000 0.4000 (  2074 PWs)   bands (ev):

   -69.2018 -39.0505 -35.3040 -35.2932 -35.2776 -15.4894 -15.3968 -15.2867
    14.0919  14.8000  15.5844  15.6415  15.9960  16.2845  18.4338  18.6953
    19.4005  20.5247

          k = 0.2000 0.3000-0.5000 (  2072 PWs)   bands (ev):

   -69.2015 -39.0466 -35.3079 -35.2936 -35.2773 -15.5203 -15.3929 -15.2835
    14.2394  14.6717  15.5428  15.6102  16.0967  16.6882  18.1160  18.5999
    19.3720  20.6983

          k = 0.2000 0.4000 0.4000 (  2070 PWs)   bands (ev):

   -69.2010 -39.0397 -35.3058 -35.3041 -35.2765 -15.4793 -15.4750 -15.2788
    14.1119  14.6227  15.4924  15.5677  16.5822  16.5893  18.3646  18.4156
    19.7075  20.7849

          k = 0.2000 0.4000-0.5000 (  2074 PWs)   bands (ev):

   -69.2006 -39.0355 -35.3094 -35.3055 -35.2761 -15.5076 -15.4725 -15.2758
    14.0779  14.5604  15.4710  15.4751  16.7337  17.1375  18.0233  18.3752
    19.7741  20.9846

          k = 0.2000-0.5000-0.5000 (  2060 PWs)   bands (ev):

   -69.2003 -39.0313 -35.3098 -35.3098 -35.2756 -15.5027 -15.5027 -15.2728
    14.0028  14.5083  15.4092  15.4092  17.3572  17.3572  17.7793  18.1840
    19.8823  21.2334

          k = 0.3000 0.3000 0.3000 (  2082 PWs)   bands (ev):

   -69.2016 -39.0481 -35.2933 -35.2933 -35.2906 -15.4008 -15.3945 -15.3945
    14.3131  15.2852  15.5705  15.5705  15.6459  15.6459  18.6751  18.6751
    19.9787  19.9787

          k = 0.3000 0.3000 0.4000 (  2074 PWs)   bands (ev):

   -69.2008 -39.0379 -35.3037 -35.2922 -35.2917 -15.4777 -15.3884 -15.3869
    14.6608  15.0425  15.4884  15.5729  15.7259  16.0912  18.3386  18.4744
    19.9121  20.5346

          k = 0.3000 0.3000-0.5000 (  2084 PWs)   bands (ev):

   -69.2005 -39.0340 -35.3079 -35.2925 -35.2913 -15.5085 -15.3861 -15.3825
    14.6731  14.9577  15.4592  15.5398  15.8963  16.4332  18.0388  18.4045
    19.8981  20.7774

          k = 0.3000 0.4000 0.4000 (  2079 PWs)   bands (ev):

   -69.1999 -39.0277 -35.3039 -35.3032 -35.2909 -15.4691 -15.4675 -15.3801
    14.7744  15.0343  15.4282  15.5525  16.0113  16.2126  18.1577  18.2616
    20.2456  20.8082

          k = 0.3000 0.4000-0.5000 (  2074 PWs)   bands (ev):

   -69.1996 -39.0238 -35.3078 -35.3035 -35.2904 -15.4989 -15.4648 -15.3773
    14.7253  14.9996  15.4344  15.4498  16.2205  16.5032  17.9316  18.2051
    20.3035  21.0384

          k = 0.3000-0.5000-0.5000 (  2068 PWs)   bands (ev):

   -69.1993 -39.0200 -35.3078 -35.3078 -35.2899 -15.4952 -15.4952 -15.3746
    14.6895  14.9971  15.3728  15.3728  16.5989  16.5989  17.7915  18.1058
    20.4072  21.2589

          k = 0.4000 0.4000 0.4000 (  2088 PWs)   bands (ev):

   -69.1991 -39.0181 -35.3025 -35.3023 -35.3023 -15.4615 -15.4615 -15.4606
    15.0750  15.4329  15.4329  15.6563  15.8442  15.8442  18.0468  18.0468
    20.8396  20.8396

          k = 0.4000 0.4000-0.5000 (  2066 PWs)   bands (ev):

   -69.1988 -39.0144 -35.3067 -35.3019 -35.3015 -15.4919 -15.4591 -15.4577
    15.1925  15.2367  15.5122  15.6266  15.8276  16.1025  17.8755  18.0179
    20.8527  21.1231

          k = 0.4000-0.5000-0.5000 (  2076 PWs)   bands (ev):

   -69.1985 -39.0108 -35.3062 -35.3062 -35.3014 -15.4892 -15.4892 -15.4560
    15.3780  15.3978  15.4144  15.4144  16.0303  16.0303  17.8013  17.9330
    20.9994  21.2796

          k =-0.5000-0.5000-0.5000 (  2008 PWs)   bands (ev):

   -69.1981 -39.0072 -35.3051 -35.3051 -35.3051 -15.4868 -15.4868 -15.4868
    15.5185  15.5185  15.5185  15.7428  15.7428  15.7428  17.8051  17.8051
    21.2876  21.2876

     the Fermi energy is    17.7503 ev

!    total energy              =    -448.58479453 Ry
     estimated scf accuracy    <          2.0E-09 Ry
     smearing contrib. (-TS)   =      -0.00005019 Ry
     internal energy E=F+TS    =    -448.58474434 Ry

     The total energy is F=E-TS. E is the sum of the following terms:
     one-electron contribution =    -151.35987728 Ry
     hartree contribution      =      91.64000996 Ry
     xc contribution           =     -52.89084165 Ry
     ewald contribution        =    -259.82070277 Ry
     one-center paw contrib.   =     -76.15333260 Ry

     convergence has been achieved in  30 iterations

     negative rho (up, down):  8.816E-04 0.000E+00

     Forces acting on atoms (cartesian axes, Ry/au):

     atom    1 type  1   force =     0.00000000    0.00000000    0.00000000
     atom    2 type  2   force =     0.00000000    0.00000000    0.00000000

     Total force =     0.000000     Total SCF correction =     0.000000


     Computing stress (Cartesian axis) and pressure


     negative rho (up, down):  8.816E-04 0.000E+00
          total   stress  (Ry/bohr**3)                   (kbar)     P=       20.96
   0.00014249   0.00000000   0.00000000           20.96        0.00        0.00
   0.00000000   0.00014249   0.00000000            0.00       20.96        0.00
   0.00000000   0.00000000   0.00014249            0.00        0.00       20.96


     Writing all to output data dir ./out/TiFe5.save/ :
     XML data file, charge density, pseudopotentials, collected wavefunctions

     init_run     :      0.97s CPU      1.05s WALL (       1 calls)
     electrons    :     43.26s CPU     47.82s WALL (       1 calls)
     forces       :      0.27s CPU      0.31s WALL (       1 calls)
     stress       :      1.31s CPU      1.40s WALL (       1 calls)

     Called by init_run:
     wfcinit      :      0.43s CPU      0.46s WALL (       1 calls)
     potinit      :      0.13s CPU      0.14s WALL (       1 calls)
     hinit0       :      0.18s CPU      0.18s WALL (       1 calls)

     Called by electrons:
     c_bands      :     30.91s CPU     32.62s WALL (      30 calls)
     sum_band     :      6.02s CPU      7.48s WALL (      30 calls)
     v_of_rho     :      0.62s CPU      0.63s WALL (      31 calls)
     newd         :      2.68s CPU      3.75s WALL (      31 calls)
     PAW_pot      :      3.06s CPU      3.39s WALL (      31 calls)
     mix_rho      :      0.09s CPU      0.09s WALL (      30 calls)

     Called by c_bands:
     init_us_2    :      0.61s CPU      0.64s WALL (    3528 calls)
     cegterg      :     29.42s CPU     31.11s WALL (    1680 calls)

     Called by *egterg:
     cdiaghg      :      2.15s CPU      2.20s WALL (    6825 calls)
     h_psi        :     18.38s CPU     19.88s WALL (    6881 calls)
     s_psi        :      1.73s CPU      1.76s WALL (    6881 calls)
     g_psi        :      0.09s CPU      0.09s WALL (    5145 calls)

     Called by h_psi:
     h_psi:calbec :      2.21s CPU      2.40s WALL (    6881 calls)
     vloc_psi     :     14.25s CPU     15.49s WALL (    6881 calls)
     add_vuspsi   :      1.70s CPU      1.78s WALL (    6881 calls)

     General routines
     calbec       :      3.35s CPU      3.61s WALL (    9513 calls)
     fft          :      0.30s CPU      0.32s WALL (     426 calls)
     ffts         :      0.01s CPU      0.01s WALL (      61 calls)
     fftw         :     13.42s CPU     14.62s WALL (  191304 calls)
     interpolate  :      0.04s CPU      0.04s WALL (      31 calls)

     Parallel routines

     PWSCF        :     46.02s CPU     50.81s WALL


   This run was terminated on:   1: 4: 3  30Oct2025            

=------------------------------------------------------------------------------=
   JOB DONE.
=------------------------------------------------------------------------------=
