
     Program PWSCF v.7.4.1 starts on 30Oct2025 at  1:16: 1 

     This program is part of the open-source Quantum ESPRESSO suite
     for quantum simulation of materials; please cite
         "P. Giannozzi et al., J. Phys.:Condens. Matter 21 395502 (2009);
         "P. Giannozzi et al., J. Phys.:Condens. Matter 29 465901 (2017);
         "P. Giannozzi et al., J. Chem. Phys. 152 154105 (2020);
          URL http://www.quantum-espresso.org", 
     in publications or presentations arising from this work. More details at
     http://www.quantum-espresso.org/quote

     Parallel version (MPI), running on     4 processors

     MPI processes distributed on     1 nodes
     4277 MiB available memory on the printing compute node when the environment starts

     Reading input from TiFe13.in

     Current dimensions of program PWSCF are:
     Max number of different atomic species (ntypx) = 10
     Max number of k-points (npk) =  40000
     Max angular momentum in pseudopotentials (lmaxx) =  4
     file Fe.pbe-spn-kjpaw_psl.0.2.1.UPF: wavefunction(s)  3D renormalized

     IMPORTANT: XC functional enforced from input :
     Exchange-correlation= PBE
                           (   1   4   3   4   0   0   0)
     Any further DFT definition will be discarded
     Please, verify this is what you really want

     Message from routine setup:
     using ibrav=0 with symmetry is DISCOURAGED, use correct ibrav instead

     R & G space division:  proc/nbgrp/npool/nimage =       4
     Subspace diagonalization in iterative solution of the eigenvalue problem:
     a serial algorithm will be used


     Parallelization info
     --------------------
     sticks:   dense  smooth     PW     G-vecs:    dense   smooth      PW
     Min         978     391    114                46184    11687    1812
     Max         980     392    115                46186    11692    1813
     Sum        3917    1565    457               184739    46753    7249

     Using Slab Decomposition



     bravais-lattice index     =            0
     lattice parameter (alat)  =       5.5533  a.u.
     unit-cell volume          =     171.2590 (a.u.)^3
     number of atoms/cell      =            2
     number of atomic types    =            2
     number of electrons       =        28.00
     number of Kohn-Sham states=           18
     kinetic-energy cutoff     =     160.0000  Ry
     charge density cutoff     =    1600.0000  Ry
     scf convergence threshold =      1.0E-08
     mixing beta               =       0.7000
     number of iterations used =            8  plain     mixing
     Exchange-correlation= PBE
                           (   1   4   3   4   0   0   0)

     celldm(1)=   5.553300  celldm(2)=   0.000000  celldm(3)=   0.000000
     celldm(4)=   0.000000  celldm(5)=   0.000000  celldm(6)=   0.000000

     crystal axes: (cart. coord. in units of alat)
               a(1) = (   1.000000   0.000000   0.000000 )  
               a(2) = (   0.000000   1.000000   0.000000 )  
               a(3) = (   0.000000   0.000000   1.000000 )  

     reciprocal axes: (cart. coord. in units 2 pi/alat)
               b(1) = (  1.000000  0.000000  0.000000 )  
               b(2) = (  0.000000  1.000000  0.000000 )  
               b(3) = (  0.000000  0.000000  1.000000 )  


     PseudoPot. # 1 for Fe read from file:
     /home/rafi/QE/qe-7.4.1/pseudo/Fe.pbe-spn-kjpaw_psl.0.2.1.UPF
     MD5 check sum: e86618425769142926afa95317d90200
     Pseudo is Projector augmented-wave + core cor, Zval = 16.0
     Generated using "atomic" code by A. Dal Corso  v.5.0.99 svn rev. 10869
     Shape of augmentation charge: PSQ
     Using radial grid of 1191 points,  6 beta functions with: 
                l(1) =   0
                l(2) =   0
                l(3) =   1
                l(4) =   1
                l(5) =   2
                l(6) =   2
     Q(r) pseudized with 0 coefficients 


     PseudoPot. # 2 for Ti read from file:
     /home/rafi/QE/qe-7.4.1/pseudo/ti_pbe_v1.4.uspp.F.UPF
     MD5 check sum: 88a00a6731bd790ddea75d31a80cb452
     Pseudo is Ultrasoft + core correction, Zval = 12.0
     Generated by new atomic code, or converted to UPF format
     Using radial grid of  851 points,  6 beta functions with: 
                l(1) =   0
                l(2) =   0
                l(3) =   1
                l(4) =   1
                l(5) =   2
                l(6) =   2
     Q(r) pseudized with  6 coefficients,  rinner =    1.000   1.000   1.000
                                                       1.000   1.000

     atomic species   valence    mass     pseudopotential
     Fe               16.00    55.84500     Fe( 1.00)
     Ti               12.00    47.86700     Ti( 1.00)

     48 Sym. Ops., with inversion, found



   Cartesian axes

     site n.     atom                  positions (alat units)
         1        Fe     tau(   1) = (   0.5000000   0.5000000   0.5000000  )
         2        Ti     tau(   2) = (   0.0000000   0.0000000   0.0000000  )

     number of k points=    56  Marzari-Vanderbilt smearing, width (Ry)=  0.0050
                       cart. coord. in units 2pi/alat
        k(    1) = (   0.0000000   0.0000000   0.0000000), wk =   0.0020000
        k(    2) = (   0.0000000   0.0000000   0.1000000), wk =   0.0120000
        k(    3) = (   0.0000000   0.0000000   0.2000000), wk =   0.0120000
        k(    4) = (   0.0000000   0.0000000   0.3000000), wk =   0.0120000
        k(    5) = (   0.0000000   0.0000000   0.4000000), wk =   0.0120000
        k(    6) = (   0.0000000   0.0000000  -0.5000000), wk =   0.0060000
        k(    7) = (   0.0000000   0.1000000   0.1000000), wk =   0.0240000
        k(    8) = (   0.0000000   0.1000000   0.2000000), wk =   0.0480000
        k(    9) = (   0.0000000   0.1000000   0.3000000), wk =   0.0480000
        k(   10) = (   0.0000000   0.1000000   0.4000000), wk =   0.0480000
        k(   11) = (   0.0000000   0.1000000  -0.5000000), wk =   0.0240000
        k(   12) = (   0.0000000   0.2000000   0.2000000), wk =   0.0240000
        k(   13) = (   0.0000000   0.2000000   0.3000000), wk =   0.0480000
        k(   14) = (   0.0000000   0.2000000   0.4000000), wk =   0.0480000
        k(   15) = (   0.0000000   0.2000000  -0.5000000), wk =   0.0240000
        k(   16) = (   0.0000000   0.3000000   0.3000000), wk =   0.0240000
        k(   17) = (   0.0000000   0.3000000   0.4000000), wk =   0.0480000
        k(   18) = (   0.0000000   0.3000000  -0.5000000), wk =   0.0240000
        k(   19) = (   0.0000000   0.4000000   0.4000000), wk =   0.0240000
        k(   20) = (   0.0000000   0.4000000  -0.5000000), wk =   0.0240000
        k(   21) = (   0.0000000  -0.5000000  -0.5000000), wk =   0.0060000
        k(   22) = (   0.1000000   0.1000000   0.1000000), wk =   0.0160000
        k(   23) = (   0.1000000   0.1000000   0.2000000), wk =   0.0480000
        k(   24) = (   0.1000000   0.1000000   0.3000000), wk =   0.0480000
        k(   25) = (   0.1000000   0.1000000   0.4000000), wk =   0.0480000
        k(   26) = (   0.1000000   0.1000000  -0.5000000), wk =   0.0240000
        k(   27) = (   0.1000000   0.2000000   0.2000000), wk =   0.0480000
        k(   28) = (   0.1000000   0.2000000   0.3000000), wk =   0.0960000
        k(   29) = (   0.1000000   0.2000000   0.4000000), wk =   0.0960000
        k(   30) = (   0.1000000   0.2000000  -0.5000000), wk =   0.0480000
        k(   31) = (   0.1000000   0.3000000   0.3000000), wk =   0.0480000
        k(   32) = (   0.1000000   0.3000000   0.4000000), wk =   0.0960000
        k(   33) = (   0.1000000   0.3000000  -0.5000000), wk =   0.0480000
        k(   34) = (   0.1000000   0.4000000   0.4000000), wk =   0.0480000
        k(   35) = (   0.1000000   0.4000000  -0.5000000), wk =   0.0480000
        k(   36) = (   0.1000000  -0.5000000  -0.5000000), wk =   0.0120000
        k(   37) = (   0.2000000   0.2000000   0.2000000), wk =   0.0160000
        k(   38) = (   0.2000000   0.2000000   0.3000000), wk =   0.0480000
        k(   39) = (   0.2000000   0.2000000   0.4000000), wk =   0.0480000
        k(   40) = (   0.2000000   0.2000000  -0.5000000), wk =   0.0240000
        k(   41) = (   0.2000000   0.3000000   0.3000000), wk =   0.0480000
        k(   42) = (   0.2000000   0.3000000   0.4000000), wk =   0.0960000
        k(   43) = (   0.2000000   0.3000000  -0.5000000), wk =   0.0480000
        k(   44) = (   0.2000000   0.4000000   0.4000000), wk =   0.0480000
        k(   45) = (   0.2000000   0.4000000  -0.5000000), wk =   0.0480000
        k(   46) = (   0.2000000  -0.5000000  -0.5000000), wk =   0.0120000
        k(   47) = (   0.3000000   0.3000000   0.3000000), wk =   0.0160000
        k(   48) = (   0.3000000   0.3000000   0.4000000), wk =   0.0480000
        k(   49) = (   0.3000000   0.3000000  -0.5000000), wk =   0.0240000
        k(   50) = (   0.3000000   0.4000000   0.4000000), wk =   0.0480000
        k(   51) = (   0.3000000   0.4000000  -0.5000000), wk =   0.0480000
        k(   52) = (   0.3000000  -0.5000000  -0.5000000), wk =   0.0120000
        k(   53) = (   0.4000000   0.4000000   0.4000000), wk =   0.0160000
        k(   54) = (   0.4000000   0.4000000  -0.5000000), wk =   0.0240000
        k(   55) = (   0.4000000  -0.5000000  -0.5000000), wk =   0.0120000
        k(   56) = (  -0.5000000  -0.5000000  -0.5000000), wk =   0.0020000

     Dense  grid:   184739 G-vectors     FFT dimensions: (  72,  72,  72)

     Smooth grid:    46753 G-vectors     FFT dimensions: (  45,  45,  45)

     Estimated max dynamical RAM per process >     198.53 MB

     Estimated total dynamical RAM >     794.12 MB

     Initial potential from superposition of free atoms

     starting charge      26.9995, renormalised to      28.0000

     negative rho (up, down):  1.377E-03 0.000E+00
     Starting wfcs are   23 randomized atomic wfcs
     Checking if some PAW data can be deallocated... 

     total cpu time spent up to now is        2.8 secs

     Self-consistent Calculation

     iteration #  1     ecut=   160.00 Ry     beta= 0.70
     Davidson diagonalization with overlap
     ethr =  1.00E-02,  avg # of iterations =  2.2

     negative rho (up, down):  7.059E-05 0.000E+00

     total cpu time spent up to now is        8.0 secs

     total energy              =    -434.87572868 Ry
     estimated scf accuracy    <      17.48243207 Ry

     iteration #  2     ecut=   160.00 Ry     beta= 0.70
     Davidson diagonalization with overlap
     ethr =  1.00E-02,  avg # of iterations =  6.1

     negative rho (up, down):  2.300E-05 0.000E+00

     total cpu time spent up to now is       16.4 secs

     WARNING: integrated charge=    28.00011971, expected=    28.00000000

     total energy              =    -448.51372733 Ry
     estimated scf accuracy    <      66.14004958 Ry

     iteration #  3     ecut=   160.00 Ry     beta= 0.70
     Davidson diagonalization with overlap
     ethr =  1.00E-02,  avg # of iterations =  3.2

     negative rho (up, down):  2.140E-04 0.000E+00

     total cpu time spent up to now is       22.5 secs

     WARNING: integrated charge=    28.00001666, expected=    28.00000000

     total energy              =    -448.59127067 Ry
     estimated scf accuracy    <      16.77596231 Ry

     iteration #  4     ecut=   160.00 Ry     beta= 0.70
     Davidson diagonalization with overlap
     ethr =  1.00E-02,  avg # of iterations =  2.1

     negative rho (up, down):  2.587E-04 0.000E+00

     total cpu time spent up to now is       27.5 secs

     WARNING: integrated charge=    28.00001779, expected=    28.00000000

     total energy              =    -449.10664315 Ry
     estimated scf accuracy    <       4.83885301 Ry

     iteration #  5     ecut=   160.00 Ry     beta= 0.70
     Davidson diagonalization with overlap
     ethr =  1.00E-02,  avg # of iterations =  1.0

     negative rho (up, down):  3.131E-04 0.000E+00

     total cpu time spent up to now is       31.6 secs

     WARNING: integrated charge=    28.00002130, expected=    28.00000000

     total energy              =    -449.10904254 Ry
     estimated scf accuracy    <       4.37799219 Ry

     iteration #  6     ecut=   160.00 Ry     beta= 0.70
     Davidson diagonalization with overlap
     ethr =  1.00E-02,  avg # of iterations =  1.0

     negative rho (up, down):  1.112E-03 0.000E+00

     total cpu time spent up to now is       35.7 secs

     total energy              =    -447.90547338 Ry
     estimated scf accuracy    <       4.54189812 Ry

     iteration #  7     ecut=   160.00 Ry     beta= 0.70
     Davidson diagonalization with overlap
     ethr =  1.00E-02,  avg # of iterations =  3.2

     negative rho (up, down):  1.062E-03 0.000E+00

     total cpu time spent up to now is       40.6 secs

     total energy              =    -448.66387380 Ry
     estimated scf accuracy    <       3.19184034 Ry

     iteration #  8     ecut=   160.00 Ry     beta= 0.70
     Davidson diagonalization with overlap
     ethr =  1.00E-02,  avg # of iterations =  1.0

     negative rho (up, down):  1.022E-03 0.000E+00

     total cpu time spent up to now is       44.8 secs

     total energy              =    -448.55161169 Ry
     estimated scf accuracy    <       2.09041469 Ry

     iteration #  9     ecut=   160.00 Ry     beta= 0.70
     Davidson diagonalization with overlap
     ethr =  7.47E-03,  avg # of iterations =  1.0

     negative rho (up, down):  7.948E-04 0.000E+00

     total cpu time spent up to now is       48.9 secs

     WARNING: integrated charge=    28.00000753, expected=    28.00000000

     total energy              =    -448.55696100 Ry
     estimated scf accuracy    <       0.33219893 Ry

     iteration # 10     ecut=   160.00 Ry     beta= 0.70
     Davidson diagonalization with overlap
     ethr =  1.19E-03,  avg # of iterations =  2.3

     negative rho (up, down):  7.996E-04 0.000E+00

     total cpu time spent up to now is       53.4 secs

     total energy              =    -448.57642569 Ry
     estimated scf accuracy    <       0.05655993 Ry

     iteration # 11     ecut=   160.00 Ry     beta= 0.70
     Davidson diagonalization with overlap
     ethr =  2.02E-04,  avg # of iterations =  4.8

     negative rho (up, down):  8.822E-04 0.000E+00

     total cpu time spent up to now is       59.1 secs

     WARNING: integrated charge=    27.99999710, expected=    28.00000000

     total energy              =    -448.80005776 Ry
     estimated scf accuracy    <       0.25317996 Ry

     iteration # 12     ecut=   160.00 Ry     beta= 0.70
     Davidson diagonalization with overlap
     ethr =  2.02E-04,  avg # of iterations =  5.7

     negative rho (up, down):  6.788E-04 0.000E+00

     total cpu time spent up to now is       66.2 secs

     WARNING: integrated charge=    28.00000651, expected=    28.00000000

     total energy              =    -447.92290226 Ry
     estimated scf accuracy    <      11.72293933 Ry

     iteration # 13     ecut=   160.00 Ry     beta= 0.70
     Davidson diagonalization with overlap
     ethr =  2.02E-04,  avg # of iterations =  5.9

     negative rho (up, down):  5.786E-04 0.000E+00

     total cpu time spent up to now is       73.2 secs

     WARNING: integrated charge=    28.00000494, expected=    28.00000000

     total energy              =    -448.65069708 Ry
     estimated scf accuracy    <       0.16287879 Ry

     iteration # 14     ecut=   160.00 Ry     beta= 0.70
     Davidson diagonalization with overlap
     ethr =  2.02E-04,  avg # of iterations =  4.3

     negative rho (up, down):  5.465E-04 0.000E+00

     total cpu time spent up to now is       79.4 secs

     total energy              =    -448.59200310 Ry
     estimated scf accuracy    <       0.35981832 Ry

     iteration # 15     ecut=   160.00 Ry     beta= 0.70
     Davidson diagonalization with overlap
     ethr =  2.02E-04,  avg # of iterations =  3.7

     negative rho (up, down):  7.463E-04 0.000E+00

     total cpu time spent up to now is       84.6 secs

     total energy              =    -448.58762443 Ry
     estimated scf accuracy    <       0.42221093 Ry

     iteration # 16     ecut=   160.00 Ry     beta= 0.70
     Davidson diagonalization with overlap
     ethr =  2.02E-04,  avg # of iterations =  2.0

     negative rho (up, down):  1.152E-03 0.000E+00

     total cpu time spent up to now is       89.4 secs

     WARNING: integrated charge=    27.99999640, expected=    28.00000000

     total energy              =    -448.57170868 Ry
     estimated scf accuracy    <       0.18168605 Ry

     iteration # 17     ecut=   160.00 Ry     beta= 0.70
     Davidson diagonalization with overlap
     ethr =  2.02E-04,  avg # of iterations =  3.1

     negative rho (up, down):  1.041E-03 0.000E+00

     total cpu time spent up to now is       94.3 secs

     total energy              =    -448.58535546 Ry
     estimated scf accuracy    <       0.02989368 Ry

     iteration # 18     ecut=   160.00 Ry     beta= 0.70
     Davidson diagonalization with overlap
     ethr =  1.07E-04,  avg # of iterations =  1.0

     negative rho (up, down):  1.086E-03 0.000E+00

     total cpu time spent up to now is       98.4 secs

     total energy              =    -448.58768119 Ry
     estimated scf accuracy    <       0.00613635 Ry

     iteration # 19     ecut=   160.00 Ry     beta= 0.70
     Davidson diagonalization with overlap
     ethr =  2.19E-05,  avg # of iterations =  2.4

     negative rho (up, down):  1.086E-03 0.000E+00

     total cpu time spent up to now is      103.0 secs

     total energy              =    -448.58857487 Ry
     estimated scf accuracy    <       0.01837227 Ry

     iteration # 20     ecut=   160.00 Ry     beta= 0.70
     Davidson diagonalization with overlap
     ethr =  2.19E-05,  avg # of iterations =  1.0

     negative rho (up, down):  1.090E-03 0.000E+00

     total cpu time spent up to now is      107.0 secs

     total energy              =    -448.58897051 Ry
     estimated scf accuracy    <       0.02048323 Ry

     iteration # 21     ecut=   160.00 Ry     beta= 0.70
     Davidson diagonalization with overlap
     ethr =  2.19E-05,  avg # of iterations =  1.1

     negative rho (up, down):  1.063E-03 0.000E+00

     total cpu time spent up to now is      111.1 secs

     total energy              =    -448.58754708 Ry
     estimated scf accuracy    <       0.02004569 Ry

     iteration # 22     ecut=   160.00 Ry     beta= 0.70
     Davidson diagonalization with overlap
     ethr =  2.19E-05,  avg # of iterations =  2.0

     negative rho (up, down):  1.024E-03 0.000E+00

     total cpu time spent up to now is      115.6 secs

     total energy              =    -448.58629959 Ry
     estimated scf accuracy    <       0.01968760 Ry

     iteration # 23     ecut=   160.00 Ry     beta= 0.70
     Davidson diagonalization with overlap
     ethr =  2.19E-05,  avg # of iterations =  2.0

     negative rho (up, down):  9.857E-04 0.000E+00

     total cpu time spent up to now is      120.1 secs

     total energy              =    -448.58636502 Ry
     estimated scf accuracy    <       0.00407052 Ry

     iteration # 24     ecut=   160.00 Ry     beta= 0.70
     Davidson diagonalization with overlap
     ethr =  1.45E-05,  avg # of iterations =  2.2

     negative rho (up, down):  9.839E-04 0.000E+00

     total cpu time spent up to now is      124.5 secs

     total energy              =    -448.58669334 Ry
     estimated scf accuracy    <       0.00005668 Ry

     iteration # 25     ecut=   160.00 Ry     beta= 0.70
     Davidson diagonalization with overlap
     ethr =  2.02E-07,  avg # of iterations =  4.8

     negative rho (up, down):  9.846E-04 0.000E+00

     total cpu time spent up to now is      130.4 secs

     total energy              =    -448.58673573 Ry
     estimated scf accuracy    <       0.00007489 Ry

     iteration # 26     ecut=   160.00 Ry     beta= 0.70
     Davidson diagonalization with overlap
     ethr =  2.02E-07,  avg # of iterations =  1.0

     negative rho (up, down):  9.841E-04 0.000E+00

     total cpu time spent up to now is      134.6 secs

     total energy              =    -448.58673310 Ry
     estimated scf accuracy    <       0.00002386 Ry

     iteration # 27     ecut=   160.00 Ry     beta= 0.70
     Davidson diagonalization with overlap
     ethr =  8.52E-08,  avg # of iterations =  2.0

     negative rho (up, down):  9.843E-04 0.000E+00

     total cpu time spent up to now is      139.1 secs

     total energy              =    -448.58673450 Ry
     estimated scf accuracy    <       0.00000171 Ry

     iteration # 28     ecut=   160.00 Ry     beta= 0.70
     Davidson diagonalization with overlap
     ethr =  6.11E-09,  avg # of iterations =  4.6

     negative rho (up, down):  9.842E-04 0.000E+00

     total cpu time spent up to now is      144.9 secs

     total energy              =    -448.58673518 Ry
     estimated scf accuracy    <       0.00000068 Ry

     iteration # 29     ecut=   160.00 Ry     beta= 0.70
     Davidson diagonalization with overlap
     ethr =  2.44E-09,  avg # of iterations =  1.1

     negative rho (up, down):  9.842E-04 0.000E+00

     total cpu time spent up to now is      149.1 secs

     total energy              =    -448.58673522 Ry
     estimated scf accuracy    <       0.00000001 Ry

     iteration # 30     ecut=   160.00 Ry     beta= 0.70
     Davidson diagonalization with overlap
     ethr =  4.87E-11,  avg # of iterations =  4.8

     negative rho (up, down):  9.842E-04 0.000E+00

     total cpu time spent up to now is      155.2 secs

     total energy              =    -448.58673522 Ry
     estimated scf accuracy    <       0.00000001 Ry

     iteration # 31     ecut=   160.00 Ry     beta= 0.70
     Davidson diagonalization with overlap
     ethr =  4.41E-11,  avg # of iterations =  1.0

     negative rho (up, down):  9.842E-04 0.000E+00

     total cpu time spent up to now is      159.2 secs

     End of self-consistent calculation

          k = 0.0000 0.0000 0.0000 (  5743 PWs)   bands (ev):

   -69.2094 -39.1184 -35.2714 -35.2714 -35.2714 -15.2144 -15.2144 -15.2144
    10.1528  13.8671  13.8671  16.6594  16.6594  16.6594  19.0111  19.0111
    20.9600  20.9600

          k = 0.0000 0.0000 0.1000 (  5835 PWs)   bands (ev):

   -69.2091 -39.1158 -35.2744 -35.2710 -35.2710 -15.2497 -15.2123 -15.2123
    10.3616  13.9676  13.9749  16.6440  16.6440  16.7049  18.8836  19.0585
    20.6600  20.6600

          k = 0.0000 0.0000 0.2000 (  5826 PWs)   bands (ev):

   -69.2082 -39.1091 -35.2823 -35.2697 -35.2697 -15.3413 -15.2068 -15.2068
    10.9632  14.2449  14.2599  16.6107  16.6107  16.8302  18.5183  19.1561
    19.9920  19.9920

          k = 0.0000 0.0000 0.3000 (  5846 PWs)   bands (ev):

   -69.2071 -39.1009 -35.2919 -35.2682 -35.2682 -15.4529 -15.2000 -15.2000
    11.8809  14.5152  14.7122  16.5871  16.5871  17.0005  17.9717  19.1419
    19.3001  19.3001

          k = 0.0000 0.0000 0.4000 (  5822 PWs)   bands (ev):

   -69.2062 -39.0942 -35.2997 -35.2670 -35.2670 -15.5419 -15.1944 -15.1944
    12.9672  14.5180  15.2397  16.5880  16.5880  17.1545  17.3649  18.7963
    18.7963  18.8382

          k = 0.0000 0.0000-0.5000 (  5846 PWs)   bands (ev):

   -69.2059 -39.0917 -35.3026 -35.2665 -35.2665 -15.5757 -15.1923 -15.1923
    13.8513  14.0899  15.5490  16.5952  16.5952  17.0246  17.2183  18.6018
    18.6102  18.6102

          k = 0.0000 0.1000 0.1000 (  5846 PWs)   bands (ev):

   -69.2087 -39.1131 -35.2756 -35.2727 -35.2705 -15.2509 -15.2435 -15.2101
    10.5654  14.0613  14.0842  16.5451  16.6173  16.8168  18.8693  19.0238
    20.3428  20.3611

          k = 0.0000 0.1000 0.2000 (  5842 PWs)   bands (ev):

   -69.2079 -39.1059 -35.2829 -35.2727 -35.2693 -15.3381 -15.2402 -15.2043
    11.1505  14.3120  14.3775  16.4520  16.5545  16.9412  18.5982  19.1098
    19.7217  19.7869

          k = 0.0000 0.1000 0.3000 (  5840 PWs)   bands (ev):

   -69.2068 -39.0970 -35.2928 -35.2720 -35.2678 -15.4482 -15.2323 -15.1971
    12.0366  14.5817  14.7890  16.4110  16.4880  16.9995  18.1495  18.9315
    19.3035  19.3265

          k = 0.0000 0.1000 0.4000 (  5859 PWs)   bands (ev):

   -69.2059 -39.0899 -35.3007 -35.2714 -35.2666 -15.5362 -15.2258 -15.1912
    13.0723  14.5701  15.2636  16.4258  16.4337  16.9482  17.6904  18.4888
    19.0519  19.1727

          k = 0.0000 0.1000-0.5000 (  5846 PWs)   bands (ev):

   -69.2056 -39.0871 -35.3038 -35.2712 -35.2662 -15.5696 -15.2234 -15.1890
    13.8868  14.1686  15.5384  16.3626  16.4679  16.8871  17.4908  18.2965
    18.9937  19.0340

          k = 0.0000 0.2000 0.2000 (  5856 PWs)   bands (ev):

   -69.2070 -39.0974 -35.2864 -35.2788 -35.2681 -15.3380 -15.3188 -15.1977
    11.6804  14.4574  14.7146  16.2470  16.4372  16.9746  18.6926  19.0693
    19.1613  19.5092

          k = 0.0000 0.2000 0.3000 (  5853 PWs)   bands (ev):

   -69.2059 -39.0870 -35.2952 -35.2817 -35.2667 -15.4363 -15.3162 -15.1895
    12.4545  14.5838  15.1527  16.1165  16.3543  16.8035  18.5180  18.6539
    19.2401  19.4496

          k = 0.0000 0.2000 0.4000 (  5843 PWs)   bands (ev):

   -69.2051 -39.0785 -35.3035 -35.2829 -35.2656 -15.5212 -15.3075 -15.1828
    13.2976  14.5089  15.5470  16.1008  16.3934  16.5248  18.2064  18.3880
    19.3829  19.5781

          k = 0.0000 0.2000-0.5000 (  5850 PWs)   bands (ev):

   -69.2047 -39.0753 -35.3068 -35.2833 -35.2651 -15.5535 -15.3041 -15.1803
    13.8604  14.2418  15.7160  16.1627  16.3439  16.4703  18.1418  18.1921
    19.4145  19.6775

          k = 0.0000 0.3000 0.3000 (  5872 PWs)   bands (ev):

   -69.2049 -39.0745 -35.2998 -35.2922 -35.2654 -15.4295 -15.4105 -15.1801
    12.9885  14.4729  15.6946  15.8843  16.3988  16.4419  18.5202  18.8390
    19.1303  19.7647

          k = 0.0000 0.3000 0.4000 (  5876 PWs)   bands (ev):

   -69.2040 -39.0644 -35.3071 -35.2970 -35.2643 -15.5027 -15.4070 -15.1725
    13.4473  14.2809  15.7854  16.0914  16.1601  16.7673  18.3517  18.8593
    19.3425  20.1178

          k = 0.0000 0.3000-0.5000 (  5870 PWs)   bands (ev):

   -69.2037 -39.0605 -35.3106 -35.2982 -35.2639 -15.5336 -15.4026 -15.1695
    13.6619  14.1443  15.8269  15.8859  16.3135  17.1714  18.0905  18.8624
    19.5225  20.3180

          k = 0.0000 0.4000 0.4000 (  5884 PWs)   bands (ev):

   -69.2032 -39.0529 -35.3107 -35.3078 -35.2633 -15.4908 -15.4836 -15.1640
    13.4636  14.0815  15.5977  15.7581  16.8927  17.3504  18.5852  19.0570
    19.2680  20.5476

          k = 0.0000 0.4000-0.5000 (  5856 PWs)   bands (ev):

   -69.2028 -39.0485 -35.3137 -35.3103 -35.2629 -15.5174 -15.4814 -15.1608
    13.4496  14.0074  15.5798  15.5912  17.1828  18.0958  18.1425  19.1984
    19.3339  20.7680

          k = 0.0000-0.5000-0.5000 (  5856 PWs)   bands (ev):

   -69.2025 -39.0439 -35.3149 -35.3149 -35.2625 -15.5112 -15.5112 -15.1575
    13.3648  13.9510  15.4901  15.4901  17.7652  18.1969  18.7150  18.7150
    19.4577  20.9305

          k = 0.1000 0.1000 0.1000 (  5854 PWs)   bands (ev):

   -69.2084 -39.1102 -35.2751 -35.2751 -35.2712 -15.2512 -15.2413 -15.2413
    10.7649  14.1724  14.1724  16.5160  16.5160  16.8986  18.9341  18.9341
    19.8710  20.6342

          k = 0.1000 0.1000 0.2000 (  5838 PWs)   bands (ev):

   -69.2075 -39.1026 -35.2832 -35.2738 -35.2713 -15.3348 -15.2395 -15.2357
    11.3364  14.4267  14.4476  16.3881  16.4400  16.9559  18.6779  19.0683
    19.4056  19.9643

          k = 0.1000 0.1000 0.3000 (  5866 PWs)   bands (ev):

   -69.2064 -39.0932 -35.2934 -35.2723 -35.2712 -15.4437 -15.2301 -15.2287
    12.1960  14.7058  14.8113  16.3374  16.3379  16.8861  18.3032  18.9277
    19.2889  19.3769

          k = 0.1000 0.1000 0.4000 (  5860 PWs)   bands (ev):

   -69.2056 -39.0856 -35.3016 -35.2710 -35.2710 -15.5308 -15.2230 -15.2224
    13.1887  14.6620  15.2441  16.2075  16.4170  16.7662  17.9266  18.5944
    18.8165  19.5638

          k = 0.1000 0.1000-0.5000 (  5838 PWs)   bands (ev):

   -69.2052 -39.0827 -35.3047 -35.2710 -35.2705 -15.5638 -15.2208 -15.2195
    13.9489  14.2662  15.4938  16.0996  16.5423  16.6869  17.7571  18.3701
    18.6483  19.6883

          k = 0.1000 0.2000 0.2000 (  5838 PWs)   bands (ev):

   -69.2067 -39.0939 -35.2859 -35.2797 -35.2715 -15.3338 -15.3165 -15.2304
    11.8615  14.5871  14.7666  16.2007  16.3092  16.8241  18.7767  19.0440
    19.2041  19.6786

          k = 0.1000 0.2000 0.3000 (  5863 PWs)   bands (ev):

   -69.2056 -39.0831 -35.2952 -35.2818 -35.2708 -15.4321 -15.3132 -15.2216
    12.6241  14.7336  15.1552  16.0616  16.2159  16.5699  18.6392  18.8358
    19.2254  19.5764

          k = 0.1000 0.2000 0.4000 (  5838 PWs)   bands (ev):

   -69.2047 -39.0744 -35.3040 -35.2825 -35.2700 -15.5166 -15.3045 -15.2145
    13.4449  14.6569  15.4530  15.9830  16.2795  16.4357  18.4000  18.4742
    19.0329  20.0422

          k = 0.1000 0.2000-0.5000 (  5852 PWs)   bands (ev):

   -69.2044 -39.0711 -35.3073 -35.2828 -35.2697 -15.5487 -15.3011 -15.2117
    13.9839  14.3810  15.5811  15.9415  16.2956  16.5306  18.2039  18.3558
    18.8906  20.4132

          k = 0.1000 0.3000 0.3000 (  5854 PWs)   bands (ev):

   -69.2045 -39.0706 -35.2993 -35.2925 -35.2697 -15.4250 -15.4082 -15.2121
    13.1678  14.6233  15.6871  15.8412  16.2023  16.2536  18.6254  18.9931
    19.0879  19.9873

          k = 0.1000 0.3000 0.4000 (  5860 PWs)   bands (ev):

   -69.2037 -39.0605 -35.3070 -35.2967 -35.2687 -15.4991 -15.4043 -15.2043
    13.6187  14.4308  15.7339  15.8960  16.1726  16.6021  18.3884  18.9386
    19.1381  20.5287

          k = 0.1000 0.3000-0.5000 (  5832 PWs)   bands (ev):

   -69.2034 -39.0566 -35.3106 -35.2977 -35.2683 -15.5299 -15.4000 -15.2013
    13.8179  14.2992  15.7533  15.7669  16.2725  17.0246  18.1121  18.9941
    19.0300  20.7099

          k = 0.1000 0.4000 0.4000 (  5867 PWs)   bands (ev):

   -69.2028 -39.0492 -35.3101 -35.3075 -35.2677 -15.4876 -15.4813 -15.1960
    13.6328  14.2339  15.5659  15.6948  16.8186  17.1318  18.4666  18.8172
    19.3726  20.8229

          k = 0.1000 0.4000-0.5000 (  5852 PWs)   bands (ev):

   -69.2025 -39.0449 -35.3132 -35.3097 -35.2673 -15.5147 -15.4790 -15.1928
    13.6138  14.1622  15.5460  15.5531  17.0823  17.8046  18.0881  18.7790
    19.4428  20.9289

          k = 0.1000-0.5000-0.5000 (  5876 PWs)   bands (ev):

   -69.2022 -39.0404 -35.3142 -35.3142 -35.2669 -15.5089 -15.5089 -15.1896
    13.5307  14.1052  15.4647  15.4647  17.7690  18.1980  18.2042  18.2042
    19.5620  21.5823

          k = 0.2000 0.2000 0.2000 (  5860 PWs)   bands (ev):

   -69.2058 -39.0846 -35.2845 -35.2845 -35.2777 -15.3277 -15.3106 -15.3106
    12.3680  14.9109  14.9109  16.0806  16.0806  16.4311  18.9669  18.9669
    19.4618  19.9325

          k = 0.2000 0.2000 0.3000 (  5865 PWs)   bands (ev):

   -69.2047 -39.0730 -35.2955 -35.2828 -35.2803 -15.4214 -15.3071 -15.3033
    13.0837  15.1118  15.1612  15.9290  15.9529  16.1232  18.8450  18.9686
    19.3183  19.9270

          k = 0.2000 0.2000 0.4000 (  5838 PWs)   bands (ev):

   -69.2039 -39.0637 -35.3051 -35.2817 -35.2815 -15.5045 -15.2974 -15.2959
    13.8036  14.9408  15.3128  15.7848  16.0491  16.2660  18.5588  18.7086
    18.9270  20.4838

          k = 0.2000 0.2000-0.5000 (  5854 PWs)   bands (ev):

   -69.2036 -39.0601 -35.3087 -35.2822 -35.2810 -15.5360 -15.2951 -15.2915
    14.2308  14.6411  15.4186  15.7051  16.1278  16.4988  18.2212  18.6358
    18.8078  20.5934

          k = 0.2000 0.3000 0.3000 (  5850 PWs)   bands (ev):

   -69.2037 -39.0605 -35.2978 -35.2933 -35.2809 -15.4134 -15.4021 -15.2951
    13.6642  15.0187  15.6529  15.7397  15.7728  15.8880  18.7367  18.9278
    19.4199  20.1873

          k = 0.2000 0.3000 0.4000 (  5849 PWs)   bands (ev):

   -69.2028 -39.0504 -35.3066 -35.2958 -35.2803 -15.4896 -15.3969 -15.2869
    14.0904  14.7990  15.5834  15.6408  15.9949  16.2827  18.4328  18.6941
    19.3998  20.5239

          k = 0.2000 0.3000-0.5000 (  5858 PWs)   bands (ev):

   -69.2025 -39.0465 -35.3105 -35.2962 -35.2800 -15.5204 -15.3930 -15.2837
    14.2381  14.6707  15.5417  15.6095  16.0955  16.6857  18.1153  18.5987
    19.3714  20.6975

          k = 0.2000 0.4000 0.4000 (  5846 PWs)   bands (ev):

   -69.2020 -39.0396 -35.3085 -35.3067 -35.2792 -15.4794 -15.4752 -15.2790
    14.1106  14.6219  15.4916  15.5669  16.5804  16.5871  18.3636  18.4142
    19.7068  20.7841

          k = 0.2000 0.4000-0.5000 (  5864 PWs)   bands (ev):

   -69.2017 -39.0355 -35.3120 -35.3081 -35.2788 -15.5077 -15.4727 -15.2759
    14.0767  14.5597  15.4702  15.4744  16.7317  17.1347  18.0225  18.3741
    19.7734  20.9837

          k = 0.2000-0.5000-0.5000 (  5868 PWs)   bands (ev):

   -69.2014 -39.0312 -35.3126 -35.3126 -35.2783 -15.5029 -15.5029 -15.2729
    14.0016  14.5077  15.4085  15.4085  17.3541  17.3541  17.7788  18.1833
    19.8816  21.2324

          k = 0.3000 0.3000 0.3000 (  5830 PWs)   bands (ev):

   -69.2026 -39.0480 -35.2959 -35.2959 -35.2931 -15.4009 -15.3946 -15.3946
    14.3111  15.2845  15.5692  15.5692  15.6451  15.6451  18.6740  18.6740
    19.9779  19.9779

          k = 0.3000 0.3000 0.4000 (  5856 PWs)   bands (ev):

   -69.2018 -39.0379 -35.3063 -35.2947 -35.2944 -15.4779 -15.3885 -15.3871
    14.6591  15.0418  15.4870  15.5721  15.7249  16.0893  18.3375  18.4733
    19.9115  20.5338

          k = 0.3000 0.3000-0.5000 (  5856 PWs)   bands (ev):

   -69.2015 -39.0340 -35.3105 -35.2951 -35.2939 -15.5086 -15.3862 -15.3826
    14.6717  14.9569  15.4578  15.5391  15.8953  16.4305  18.0382  18.4035
    19.8975  20.7766

          k = 0.3000 0.4000 0.4000 (  5839 PWs)   bands (ev):

   -69.2010 -39.0277 -35.3065 -35.3058 -35.2935 -15.4693 -15.4677 -15.3803
    14.7730  15.0335  15.4274  15.5515  16.0092  16.2107  18.1567  18.2607
    20.2449  20.8074

          k = 0.3000 0.4000-0.5000 (  5852 PWs)   bands (ev):

   -69.2006 -39.0238 -35.3106 -35.3061 -35.2930 -15.4991 -15.4649 -15.3774
    14.7238  14.9989  15.4334  15.4490  16.2186  16.5006  17.9309  18.2042
    20.3028  21.0375

          k = 0.3000-0.5000-0.5000 (  5860 PWs)   bands (ev):

   -69.2003 -39.0199 -35.3106 -35.3106 -35.2925 -15.4954 -15.4954 -15.3748
    14.6880  14.9964  15.3719  15.3719  16.5963  16.5963  17.7909  18.1051
    20.4064  21.2579

          k = 0.4000 0.4000 0.4000 (  5860 PWs)   bands (ev):

   -69.2001 -39.0180 -35.3051 -35.3049 -35.3049 -15.4616 -15.4616 -15.4608
    15.0741  15.4319  15.4319  15.6544  15.8424  15.8424  18.0460  18.0460
    20.8388  20.8388

          k = 0.4000 0.4000-0.5000 (  5864 PWs)   bands (ev):

   -69.1998 -39.0143 -35.3094 -35.3048 -35.3043 -15.4920 -15.4593 -15.4579
    15.1911  15.2360  15.5115  15.6245  15.8260  16.1000  17.8749  18.0171
    20.8519  21.1223

          k = 0.4000-0.5000-0.5000 (  5876 PWs)   bands (ev):

   -69.1995 -39.0107 -35.3089 -35.3089 -35.3039 -15.4894 -15.4894 -15.4562
    15.3773  15.3959  15.4134  15.4134  16.0281  16.0281  17.8008  17.9323
    20.9985  21.2786

          k =-0.5000-0.5000-0.5000 (  5904 PWs)   bands (ev):

   -69.1992 -39.0072 -35.3083 -35.3083 -35.3083 -15.4870 -15.4870 -15.4870
    15.5177  15.5177  15.5177  15.7400  15.7400  15.7400  17.8045  17.8045
    21.2866  21.2866

     the Fermi energy is    17.7494 ev

!    total energy              =    -448.58673522 Ry
     estimated scf accuracy    <          1.4E-09 Ry
     smearing contrib. (-TS)   =      -0.00005157 Ry
     internal energy E=F+TS    =    -448.58668366 Ry

     The total energy is F=E-TS. E is the sum of the following terms:
     one-electron contribution =    -151.36095941 Ry
     hartree contribution      =      91.64010230 Ry
     xc contribution           =     -52.89146975 Ry
     ewald contribution        =    -259.82070277 Ry
     one-center paw contrib.   =     -76.15365403 Ry

     convergence has been achieved in  31 iterations

     negative rho (up, down):  9.842E-04 0.000E+00

     Forces acting on atoms (cartesian axes, Ry/au):

     atom    1 type  1   force =     0.00000000    0.00000000    0.00000000
     atom    2 type  2   force =     0.00000000    0.00000000    0.00000000

     Total force =     0.000000     Total SCF correction =     0.000000


     Computing stress (Cartesian axis) and pressure


     negative rho (up, down):  9.842E-04 0.000E+00
          total   stress  (Ry/bohr**3)                   (kbar)     P=       28.98
   0.00019697   0.00000000   0.00000000           28.98        0.00        0.00
   0.00000000   0.00019697   0.00000000            0.00       28.98        0.00
   0.00000000   0.00000000   0.00019697            0.00        0.00       28.98


     Writing all to output data dir ./out/TiFe13.save/ :
     XML data file, charge density, pseudopotentials, collected wavefunctions

     init_run     :      2.44s CPU      2.61s WALL (       1 calls)
     electrons    :    147.19s CPU    156.43s WALL (       1 calls)
     forces       :      0.85s CPU      0.95s WALL (       1 calls)
     stress       :      3.99s CPU      4.27s WALL (       1 calls)

     Called by init_run:
     wfcinit      :      1.64s CPU      1.69s WALL (       1 calls)
     potinit      :      0.20s CPU      0.23s WALL (       1 calls)
     hinit0       :      0.27s CPU      0.27s WALL (       1 calls)

     Called by electrons:
     c_bands      :    109.31s CPU    111.80s WALL (      31 calls)
     sum_band     :     23.99s CPU     27.75s WALL (      31 calls)
     v_of_rho     :      2.40s CPU      2.48s WALL (      32 calls)
     newd         :      8.01s CPU     10.97s WALL (      32 calls)
     PAW_pot      :      3.17s CPU      3.21s WALL (      32 calls)
     mix_rho      :      0.44s CPU      0.46s WALL (      31 calls)

     Called by c_bands:
     init_us_2    :      2.71s CPU      2.75s WALL (    3640 calls)
     cegterg      :    104.06s CPU    106.51s WALL (    1736 calls)

     Called by *egterg:
     cdiaghg      :      2.09s CPU      2.11s WALL (    6430 calls)
     h_psi        :     76.06s CPU     78.40s WALL (    6486 calls)
     s_psi        :      4.90s CPU      4.92s WALL (    6486 calls)
     g_psi        :      0.24s CPU      0.24s WALL (    4694 calls)

     Called by h_psi:
     h_psi:calbec :      8.19s CPU      8.35s WALL (    6486 calls)
     vloc_psi     :     62.15s CPU     64.31s WALL (    6486 calls)
     add_vuspsi   :      5.01s CPU      5.03s WALL (    6486 calls)

     General routines
     calbec       :     11.87s CPU     12.08s WALL (    9174 calls)
     fft          :      1.27s CPU      1.39s WALL (     439 calls)
     ffts         :      0.04s CPU      0.04s WALL (      63 calls)
     fftw         :     51.30s CPU     53.25s WALL (  189158 calls)
     interpolate  :      0.15s CPU      0.17s WALL (      32 calls)

     Parallel routines

     PWSCF        :   2m34.72s CPU   2m44.59s WALL


   This run was terminated on:   1:18:45  30Oct2025            

=------------------------------------------------------------------------------=
   JOB DONE.
=------------------------------------------------------------------------------=
