
     Program PWSCF v.7.4.1 starts on 30Oct2025 at  1: 9:25 

     This program is part of the open-source Quantum ESPRESSO suite
     for quantum simulation of materials; please cite
         "P. Giannozzi et al., J. Phys.:Condens. Matter 21 395502 (2009);
         "P. Giannozzi et al., J. Phys.:Condens. Matter 29 465901 (2017);
         "P. Giannozzi et al., J. Chem. Phys. 152 154105 (2020);
          URL http://www.quantum-espresso.org", 
     in publications or presentations arising from this work. More details at
     http://www.quantum-espresso.org/quote

     Parallel version (MPI), running on     4 processors

     MPI processes distributed on     1 nodes
     4630 MiB available memory on the printing compute node when the environment starts

     Reading input from TiFe10.in

     Current dimensions of program PWSCF are:
     Max number of different atomic species (ntypx) = 10
     Max number of k-points (npk) =  40000
     Max angular momentum in pseudopotentials (lmaxx) =  4
     file Fe.pbe-spn-kjpaw_psl.0.2.1.UPF: wavefunction(s)  3D renormalized

     IMPORTANT: XC functional enforced from input :
     Exchange-correlation= PBE
                           (   1   4   3   4   0   0   0)
     Any further DFT definition will be discarded
     Please, verify this is what you really want

     Message from routine setup:
     using ibrav=0 with symmetry is DISCOURAGED, use correct ibrav instead

     R & G space division:  proc/nbgrp/npool/nimage =       4
     Subspace diagonalization in iterative solution of the eigenvalue problem:
     a serial algorithm will be used


     Parallelization info
     --------------------
     sticks:   dense  smooth     PW     G-vecs:    dense   smooth      PW
     Min         795     320     93                33849     8614    1361
     Max         796     321     94                33852     8615    1364
     Sum        3181    1281    373               135403    34457    5449

     Using Slab Decomposition



     bravais-lattice index     =            0
     lattice parameter (alat)  =       5.5533  a.u.
     unit-cell volume          =     171.2590 (a.u.)^3
     number of atoms/cell      =            2
     number of atomic types    =            2
     number of electrons       =        28.00
     number of Kohn-Sham states=           18
     kinetic-energy cutoff     =     130.0000  Ry
     charge density cutoff     =    1300.0000  Ry
     scf convergence threshold =      1.0E-08
     mixing beta               =       0.7000
     number of iterations used =            8  plain     mixing
     Exchange-correlation= PBE
                           (   1   4   3   4   0   0   0)

     celldm(1)=   5.553300  celldm(2)=   0.000000  celldm(3)=   0.000000
     celldm(4)=   0.000000  celldm(5)=   0.000000  celldm(6)=   0.000000

     crystal axes: (cart. coord. in units of alat)
               a(1) = (   1.000000   0.000000   0.000000 )  
               a(2) = (   0.000000   1.000000   0.000000 )  
               a(3) = (   0.000000   0.000000   1.000000 )  

     reciprocal axes: (cart. coord. in units 2 pi/alat)
               b(1) = (  1.000000  0.000000  0.000000 )  
               b(2) = (  0.000000  1.000000  0.000000 )  
               b(3) = (  0.000000  0.000000  1.000000 )  


     PseudoPot. # 1 for Fe read from file:
     /home/rafi/QE/qe-7.4.1/pseudo/Fe.pbe-spn-kjpaw_psl.0.2.1.UPF
     MD5 check sum: e86618425769142926afa95317d90200
     Pseudo is Projector augmented-wave + core cor, Zval = 16.0
     Generated using "atomic" code by A. Dal Corso  v.5.0.99 svn rev. 10869
     Shape of augmentation charge: PSQ
     Using radial grid of 1191 points,  6 beta functions with: 
                l(1) =   0
                l(2) =   0
                l(3) =   1
                l(4) =   1
                l(5) =   2
                l(6) =   2
     Q(r) pseudized with 0 coefficients 


     PseudoPot. # 2 for Ti read from file:
     /home/rafi/QE/qe-7.4.1/pseudo/ti_pbe_v1.4.uspp.F.UPF
     MD5 check sum: 88a00a6731bd790ddea75d31a80cb452
     Pseudo is Ultrasoft + core correction, Zval = 12.0
     Generated by new atomic code, or converted to UPF format
     Using radial grid of  851 points,  6 beta functions with: 
                l(1) =   0
                l(2) =   0
                l(3) =   1
                l(4) =   1
                l(5) =   2
                l(6) =   2
     Q(r) pseudized with  6 coefficients,  rinner =    1.000   1.000   1.000
                                                       1.000   1.000

     atomic species   valence    mass     pseudopotential
     Fe               16.00    55.84500     Fe( 1.00)
     Ti               12.00    47.86700     Ti( 1.00)

     48 Sym. Ops., with inversion, found



   Cartesian axes

     site n.     atom                  positions (alat units)
         1        Fe     tau(   1) = (   0.5000000   0.5000000   0.5000000  )
         2        Ti     tau(   2) = (   0.0000000   0.0000000   0.0000000  )

     number of k points=    56  Marzari-Vanderbilt smearing, width (Ry)=  0.0050
                       cart. coord. in units 2pi/alat
        k(    1) = (   0.0000000   0.0000000   0.0000000), wk =   0.0020000
        k(    2) = (   0.0000000   0.0000000   0.1000000), wk =   0.0120000
        k(    3) = (   0.0000000   0.0000000   0.2000000), wk =   0.0120000
        k(    4) = (   0.0000000   0.0000000   0.3000000), wk =   0.0120000
        k(    5) = (   0.0000000   0.0000000   0.4000000), wk =   0.0120000
        k(    6) = (   0.0000000   0.0000000  -0.5000000), wk =   0.0060000
        k(    7) = (   0.0000000   0.1000000   0.1000000), wk =   0.0240000
        k(    8) = (   0.0000000   0.1000000   0.2000000), wk =   0.0480000
        k(    9) = (   0.0000000   0.1000000   0.3000000), wk =   0.0480000
        k(   10) = (   0.0000000   0.1000000   0.4000000), wk =   0.0480000
        k(   11) = (   0.0000000   0.1000000  -0.5000000), wk =   0.0240000
        k(   12) = (   0.0000000   0.2000000   0.2000000), wk =   0.0240000
        k(   13) = (   0.0000000   0.2000000   0.3000000), wk =   0.0480000
        k(   14) = (   0.0000000   0.2000000   0.4000000), wk =   0.0480000
        k(   15) = (   0.0000000   0.2000000  -0.5000000), wk =   0.0240000
        k(   16) = (   0.0000000   0.3000000   0.3000000), wk =   0.0240000
        k(   17) = (   0.0000000   0.3000000   0.4000000), wk =   0.0480000
        k(   18) = (   0.0000000   0.3000000  -0.5000000), wk =   0.0240000
        k(   19) = (   0.0000000   0.4000000   0.4000000), wk =   0.0240000
        k(   20) = (   0.0000000   0.4000000  -0.5000000), wk =   0.0240000
        k(   21) = (   0.0000000  -0.5000000  -0.5000000), wk =   0.0060000
        k(   22) = (   0.1000000   0.1000000   0.1000000), wk =   0.0160000
        k(   23) = (   0.1000000   0.1000000   0.2000000), wk =   0.0480000
        k(   24) = (   0.1000000   0.1000000   0.3000000), wk =   0.0480000
        k(   25) = (   0.1000000   0.1000000   0.4000000), wk =   0.0480000
        k(   26) = (   0.1000000   0.1000000  -0.5000000), wk =   0.0240000
        k(   27) = (   0.1000000   0.2000000   0.2000000), wk =   0.0480000
        k(   28) = (   0.1000000   0.2000000   0.3000000), wk =   0.0960000
        k(   29) = (   0.1000000   0.2000000   0.4000000), wk =   0.0960000
        k(   30) = (   0.1000000   0.2000000  -0.5000000), wk =   0.0480000
        k(   31) = (   0.1000000   0.3000000   0.3000000), wk =   0.0480000
        k(   32) = (   0.1000000   0.3000000   0.4000000), wk =   0.0960000
        k(   33) = (   0.1000000   0.3000000  -0.5000000), wk =   0.0480000
        k(   34) = (   0.1000000   0.4000000   0.4000000), wk =   0.0480000
        k(   35) = (   0.1000000   0.4000000  -0.5000000), wk =   0.0480000
        k(   36) = (   0.1000000  -0.5000000  -0.5000000), wk =   0.0120000
        k(   37) = (   0.2000000   0.2000000   0.2000000), wk =   0.0160000
        k(   38) = (   0.2000000   0.2000000   0.3000000), wk =   0.0480000
        k(   39) = (   0.2000000   0.2000000   0.4000000), wk =   0.0480000
        k(   40) = (   0.2000000   0.2000000  -0.5000000), wk =   0.0240000
        k(   41) = (   0.2000000   0.3000000   0.3000000), wk =   0.0480000
        k(   42) = (   0.2000000   0.3000000   0.4000000), wk =   0.0960000
        k(   43) = (   0.2000000   0.3000000  -0.5000000), wk =   0.0480000
        k(   44) = (   0.2000000   0.4000000   0.4000000), wk =   0.0480000
        k(   45) = (   0.2000000   0.4000000  -0.5000000), wk =   0.0480000
        k(   46) = (   0.2000000  -0.5000000  -0.5000000), wk =   0.0120000
        k(   47) = (   0.3000000   0.3000000   0.3000000), wk =   0.0160000
        k(   48) = (   0.3000000   0.3000000   0.4000000), wk =   0.0480000
        k(   49) = (   0.3000000   0.3000000  -0.5000000), wk =   0.0240000
        k(   50) = (   0.3000000   0.4000000   0.4000000), wk =   0.0480000
        k(   51) = (   0.3000000   0.4000000  -0.5000000), wk =   0.0480000
        k(   52) = (   0.3000000  -0.5000000  -0.5000000), wk =   0.0120000
        k(   53) = (   0.4000000   0.4000000   0.4000000), wk =   0.0160000
        k(   54) = (   0.4000000   0.4000000  -0.5000000), wk =   0.0240000
        k(   55) = (   0.4000000  -0.5000000  -0.5000000), wk =   0.0120000
        k(   56) = (  -0.5000000  -0.5000000  -0.5000000), wk =   0.0020000

     Dense  grid:   135403 G-vectors     FFT dimensions: (  64,  64,  64)

     Smooth grid:    34457 G-vectors     FFT dimensions: (  45,  45,  45)

     Estimated max dynamical RAM per process >     146.38 MB

     Estimated total dynamical RAM >     585.50 MB

     Check: negative core charge=   -0.000003

     Initial potential from superposition of free atoms

     starting charge      26.9995, renormalised to      28.0000

     negative rho (up, down):  1.436E-03 0.000E+00
     Starting wfcs are   23 randomized atomic wfcs
     Checking if some PAW data can be deallocated... 

     total cpu time spent up to now is        2.1 secs

     Self-consistent Calculation

     iteration #  1     ecut=   130.00 Ry     beta= 0.70
     Davidson diagonalization with overlap
     ethr =  1.00E-02,  avg # of iterations =  2.2

     negative rho (up, down):  1.000E-04 0.000E+00

     total cpu time spent up to now is        6.1 secs

     total energy              =    -434.88074702 Ry
     estimated scf accuracy    <      17.47786122 Ry

     iteration #  2     ecut=   130.00 Ry     beta= 0.70
     Davidson diagonalization with overlap
     ethr =  1.00E-02,  avg # of iterations =  6.1

     negative rho (up, down):  3.307E-05 0.000E+00

     total cpu time spent up to now is       12.5 secs

     WARNING: integrated charge=    28.00014123, expected=    28.00000000

     total energy              =    -448.51840056 Ry
     estimated scf accuracy    <      66.11809874 Ry

     iteration #  3     ecut=   130.00 Ry     beta= 0.70
     Davidson diagonalization with overlap
     ethr =  1.00E-02,  avg # of iterations =  3.2

     negative rho (up, down):  2.337E-04 0.000E+00

     total cpu time spent up to now is       17.1 secs

     WARNING: integrated charge=    28.00001975, expected=    28.00000000

     total energy              =    -448.59420127 Ry
     estimated scf accuracy    <      16.77495581 Ry

     iteration #  4     ecut=   130.00 Ry     beta= 0.70
     Davidson diagonalization with overlap
     ethr =  1.00E-02,  avg # of iterations =  2.1

     negative rho (up, down):  2.566E-04 0.000E+00

     total cpu time spent up to now is       20.9 secs

     WARNING: integrated charge=    28.00002103, expected=    28.00000000

     total energy              =    -449.10764429 Ry
     estimated scf accuracy    <       4.85622763 Ry

     iteration #  5     ecut=   130.00 Ry     beta= 0.70
     Davidson diagonalization with overlap
     ethr =  1.00E-02,  avg # of iterations =  1.0

     negative rho (up, down):  2.838E-04 0.000E+00

     total cpu time spent up to now is       24.1 secs

     WARNING: integrated charge=    28.00002557, expected=    28.00000000

     total energy              =    -449.11680912 Ry
     estimated scf accuracy    <       4.39505974 Ry

     iteration #  6     ecut=   130.00 Ry     beta= 0.70
     Davidson diagonalization with overlap
     ethr =  1.00E-02,  avg # of iterations =  1.0

     negative rho (up, down):  1.128E-03 0.000E+00

     total cpu time spent up to now is       27.3 secs

     total energy              =    -447.85538534 Ry
     estimated scf accuracy    <       4.61410829 Ry

     iteration #  7     ecut=   130.00 Ry     beta= 0.70
     Davidson diagonalization with overlap
     ethr =  1.00E-02,  avg # of iterations =  3.4

     negative rho (up, down):  1.048E-03 0.000E+00

     total cpu time spent up to now is       31.1 secs

     total energy              =    -448.64310172 Ry
     estimated scf accuracy    <       4.18008636 Ry

     iteration #  8     ecut=   130.00 Ry     beta= 0.70
     Davidson diagonalization with overlap
     ethr =  1.00E-02,  avg # of iterations =  1.0

     negative rho (up, down):  8.538E-04 0.000E+00

     total cpu time spent up to now is       34.3 secs

     WARNING: integrated charge=    28.00000810, expected=    28.00000000

     total energy              =    -448.43014161 Ry
     estimated scf accuracy    <       2.04095544 Ry

     iteration #  9     ecut=   130.00 Ry     beta= 0.70
     Davidson diagonalization with overlap
     ethr =  7.29E-03,  avg # of iterations =  1.5

     negative rho (up, down):  8.163E-04 0.000E+00

     total cpu time spent up to now is       37.5 secs

     WARNING: integrated charge=    28.00000958, expected=    28.00000000

     total energy              =    -448.58918539 Ry
     estimated scf accuracy    <       0.06178296 Ry

     iteration # 10     ecut=   130.00 Ry     beta= 0.70
     Davidson diagonalization with overlap
     ethr =  2.21E-04,  avg # of iterations =  3.7

     negative rho (up, down):  8.037E-04 0.000E+00

     total cpu time spent up to now is       41.1 secs

     WARNING: integrated charge=    28.00001022, expected=    28.00000000

     total energy              =    -448.61009445 Ry
     estimated scf accuracy    <       0.08305940 Ry

     iteration # 11     ecut=   130.00 Ry     beta= 0.70
     Davidson diagonalization with overlap
     ethr =  2.21E-04,  avg # of iterations =  2.3

     negative rho (up, down):  8.432E-04 0.000E+00

     total cpu time spent up to now is       44.5 secs

     WARNING: integrated charge=    28.00000648, expected=    28.00000000

     total energy              =    -448.60623371 Ry
     estimated scf accuracy    <       0.44182390 Ry

     iteration # 12     ecut=   130.00 Ry     beta= 0.70
     Davidson diagonalization with overlap
     ethr =  2.21E-04,  avg # of iterations =  1.0

     negative rho (up, down):  5.297E-04 0.000E+00

     total cpu time spent up to now is       47.6 secs

     WARNING: integrated charge=    28.00000410, expected=    28.00000000

     total energy              =    -448.66477918 Ry
     estimated scf accuracy    <       0.27818978 Ry

     iteration # 13     ecut=   130.00 Ry     beta= 0.70
     Davidson diagonalization with overlap
     ethr =  2.21E-04,  avg # of iterations =  3.2

     negative rho (up, down):  4.436E-04 0.000E+00

     total cpu time spent up to now is       52.3 secs

     WARNING: integrated charge=    28.00000292, expected=    28.00000000

     total energy              =    -448.76865227 Ry
     estimated scf accuracy    <       0.44727040 Ry

     iteration # 14     ecut=   130.00 Ry     beta= 0.70
     Davidson diagonalization with overlap
     ethr =  2.21E-04,  avg # of iterations =  2.2

     negative rho (up, down):  3.052E-04 0.000E+00

     total cpu time spent up to now is       56.1 secs

     WARNING: integrated charge=    28.00000630, expected=    28.00000000

     total energy              =    -449.02340671 Ry
     estimated scf accuracy    <       0.66223801 Ry

     iteration # 15     ecut=   130.00 Ry     beta= 0.70
     Davidson diagonalization with overlap
     ethr =  2.21E-04,  avg # of iterations =  4.5

     negative rho (up, down):  9.335E-04 0.000E+00

     total cpu time spent up to now is       60.9 secs

     total energy              =    -448.30390332 Ry
     estimated scf accuracy    <       1.59827675 Ry

     iteration # 16     ecut=   130.00 Ry     beta= 0.70
     Davidson diagonalization with overlap
     ethr =  2.21E-04,  avg # of iterations =  6.5
     Minimization algorithm failed to find Fermi energy: reverting to bisection
     Possible cause: smearing is larger than the electronic band-gap.

     negative rho (up, down):  9.757E-04 0.000E+00

     total cpu time spent up to now is       67.3 secs

     total energy              =    -448.59874948 Ry
     estimated scf accuracy    <       0.36525035 Ry

     iteration # 17     ecut=   130.00 Ry     beta= 0.70
     Davidson diagonalization with overlap
     ethr =  2.21E-04,  avg # of iterations =  1.1

     negative rho (up, down):  1.146E-03 0.000E+00

     total cpu time spent up to now is       70.5 secs

     total energy              =    -448.61769831 Ry
     estimated scf accuracy    <       0.22281070 Ry

     iteration # 18     ecut=   130.00 Ry     beta= 0.70
     Davidson diagonalization with overlap
     ethr =  2.21E-04,  avg # of iterations =  1.4

     negative rho (up, down):  1.170E-03 0.000E+00

     total cpu time spent up to now is       73.8 secs

     WARNING: integrated charge=    27.99999412, expected=    28.00000000

     total energy              =    -448.60993854 Ry
     estimated scf accuracy    <       0.50635821 Ry

     iteration # 19     ecut=   130.00 Ry     beta= 0.70
     Davidson diagonalization with overlap
     ethr =  2.21E-04,  avg # of iterations =  1.0

     negative rho (up, down):  1.222E-03 0.000E+00

     total cpu time spent up to now is       76.9 secs

     WARNING: integrated charge=    27.99999701, expected=    28.00000000

     total energy              =    -448.60440339 Ry
     estimated scf accuracy    <       0.39037992 Ry

     iteration # 20     ecut=   130.00 Ry     beta= 0.70
     Davidson diagonalization with overlap
     ethr =  2.21E-04,  avg # of iterations =  1.0

     negative rho (up, down):  9.743E-04 0.000E+00

     total cpu time spent up to now is       80.1 secs

     WARNING: integrated charge=    27.99999457, expected=    28.00000000

     total energy              =    -448.56954208 Ry
     estimated scf accuracy    <       0.26733579 Ry

     iteration # 21     ecut=   130.00 Ry     beta= 0.70
     Davidson diagonalization with overlap
     ethr =  2.21E-04,  avg # of iterations =  3.7

     negative rho (up, down):  1.060E-03 0.000E+00

     total cpu time spent up to now is       83.8 secs

     WARNING: integrated charge=    27.99999708, expected=    28.00000000

     total energy              =    -448.58647415 Ry
     estimated scf accuracy    <       0.01164189 Ry

     iteration # 22     ecut=   130.00 Ry     beta= 0.70
     Davidson diagonalization with overlap
     ethr =  4.16E-05,  avg # of iterations =  2.2

     negative rho (up, down):  9.967E-04 0.000E+00

     total cpu time spent up to now is       87.4 secs

     total energy              =    -448.58500018 Ry
     estimated scf accuracy    <       0.02592582 Ry

     iteration # 23     ecut=   130.00 Ry     beta= 0.70
     Davidson diagonalization with overlap
     ethr =  4.16E-05,  avg # of iterations =  1.5

     negative rho (up, down):  9.971E-04 0.000E+00

     total cpu time spent up to now is       90.7 secs

     total energy              =    -448.58650090 Ry
     estimated scf accuracy    <       0.00016459 Ry

     iteration # 24     ecut=   130.00 Ry     beta= 0.70
     Davidson diagonalization with overlap
     ethr =  5.88E-07,  avg # of iterations =  4.8

     negative rho (up, down):  9.952E-04 0.000E+00

     total cpu time spent up to now is       95.2 secs

     total energy              =    -448.58661469 Ry
     estimated scf accuracy    <       0.00010507 Ry

     iteration # 25     ecut=   130.00 Ry     beta= 0.70
     Davidson diagonalization with overlap
     ethr =  3.75E-07,  avg # of iterations =  1.0

     negative rho (up, down):  9.882E-04 0.000E+00

     total cpu time spent up to now is       98.3 secs

     total energy              =    -448.58660851 Ry
     estimated scf accuracy    <       0.00007771 Ry

     iteration # 26     ecut=   130.00 Ry     beta= 0.70
     Davidson diagonalization with overlap
     ethr =  2.78E-07,  avg # of iterations =  1.0

     negative rho (up, down):  9.822E-04 0.000E+00

     total cpu time spent up to now is      101.4 secs

     total energy              =    -448.58660422 Ry
     estimated scf accuracy    <       0.00003878 Ry

     iteration # 27     ecut=   130.00 Ry     beta= 0.70
     Davidson diagonalization with overlap
     ethr =  1.39E-07,  avg # of iterations =  1.9

     negative rho (up, down):  9.814E-04 0.000E+00

     total cpu time spent up to now is      104.8 secs

     total energy              =    -448.58660559 Ry
     estimated scf accuracy    <       0.00000768 Ry

     iteration # 28     ecut=   130.00 Ry     beta= 0.70
     Davidson diagonalization with overlap
     ethr =  2.74E-08,  avg # of iterations =  2.9

     negative rho (up, down):  9.812E-04 0.000E+00

     total cpu time spent up to now is      108.3 secs

     total energy              =    -448.58660607 Ry
     estimated scf accuracy    <       0.00000062 Ry

     iteration # 29     ecut=   130.00 Ry     beta= 0.70
     Davidson diagonalization with overlap
     ethr =  2.21E-09,  avg # of iterations =  4.7

     negative rho (up, down):  9.815E-04 0.000E+00

     total cpu time spent up to now is      112.5 secs

     total energy              =    -448.58660633 Ry
     estimated scf accuracy    <       0.00000021 Ry

     iteration # 30     ecut=   130.00 Ry     beta= 0.70
     Davidson diagonalization with overlap
     ethr =  7.44E-10,  avg # of iterations =  2.0

     negative rho (up, down):  9.816E-04 0.000E+00

     total cpu time spent up to now is      116.0 secs

     End of self-consistent calculation

          k = 0.0000 0.0000 0.0000 (  4337 PWs)   bands (ev):

   -69.2092 -39.1184 -35.2711 -35.2711 -35.2711 -15.2145 -15.2145 -15.2145
    10.1529  13.8672  13.8672  16.6595  16.6595  16.6595  19.0111  19.0111
    20.9600  20.9600

          k = 0.0000 0.0000 0.1000 (  4284 PWs)   bands (ev):

   -69.2089 -39.1159 -35.2741 -35.2707 -35.2707 -15.2497 -15.2123 -15.2123
    10.3617  13.9676  13.9749  16.6441  16.6441  16.7049  18.8836  19.0585
    20.6601  20.6601

          k = 0.0000 0.0000 0.2000 (  4272 PWs)   bands (ev):

   -69.2080 -39.1092 -35.2820 -35.2694 -35.2694 -15.3413 -15.2068 -15.2068
    10.9633  14.2450  14.2600  16.6108  16.6108  16.8303  18.5183  19.1561
    19.9921  19.9921

          k = 0.0000 0.0000 0.3000 (  4272 PWs)   bands (ev):

   -69.2069 -39.1009 -35.2916 -35.2679 -35.2679 -15.4529 -15.2000 -15.2000
    11.8810  14.5153  14.7123  16.5871  16.5871  17.0006  17.9718  19.1419
    19.3002  19.3002

          k = 0.0000 0.0000 0.4000 (  4268 PWs)   bands (ev):

   -69.2061 -39.0943 -35.2994 -35.2667 -35.2667 -15.5420 -15.1944 -15.1944
    12.9674  14.5181  15.2397  16.5881  16.5881  17.1546  17.3650  18.7963
    18.7963  18.8383

          k = 0.0000 0.0000-0.5000 (  4292 PWs)   bands (ev):

   -69.2057 -39.0917 -35.3024 -35.2662 -35.2662 -15.5757 -15.1923 -15.1923
    13.8514  14.0900  15.5491  16.5953  16.5953  17.0246  17.2184  18.6018
    18.6103  18.6103

          k = 0.0000 0.1000 0.1000 (  4285 PWs)   bands (ev):

   -69.2085 -39.1131 -35.2753 -35.2724 -35.2702 -15.2509 -15.2435 -15.2101
    10.5655  14.0614  14.0842  16.5452  16.6174  16.8169  18.8694  19.0238
    20.3429  20.3612

          k = 0.0000 0.1000 0.2000 (  4277 PWs)   bands (ev):

   -69.2077 -39.1059 -35.2826 -35.2724 -35.2690 -15.3381 -15.2403 -15.2043
    11.1506  14.3121  14.3775  16.4520  16.5546  16.9413  18.5982  19.1098
    19.7218  19.7869

          k = 0.0000 0.1000 0.3000 (  4269 PWs)   bands (ev):

   -69.2066 -39.0971 -35.2925 -35.2717 -35.2675 -15.4483 -15.2323 -15.1971
    12.0368  14.5818  14.7890  16.4111  16.4881  16.9996  18.1496  18.9315
    19.3035  19.3265

          k = 0.0000 0.1000 0.4000 (  4269 PWs)   bands (ev):

   -69.2057 -39.0899 -35.3004 -35.2711 -35.2663 -15.5363 -15.2259 -15.1912
    13.0725  14.5702  15.2637  16.4259  16.4338  16.9483  17.6904  18.4888
    19.0519  19.1728

          k = 0.0000 0.1000-0.5000 (  4274 PWs)   bands (ev):

   -69.2054 -39.0872 -35.3035 -35.2709 -35.2658 -15.5696 -15.2234 -15.1890
    13.8869  14.1688  15.5385  16.3626  16.4680  16.8872  17.4908  18.2966
    18.9938  19.0341

          k = 0.0000 0.2000 0.2000 (  4292 PWs)   bands (ev):

   -69.2068 -39.0975 -35.2861 -35.2785 -35.2678 -15.3380 -15.3188 -15.1977
    11.6805  14.4574  14.7146  16.2471  16.4373  16.9747  18.6926  19.0693
    19.1614  19.5093

          k = 0.0000 0.2000 0.3000 (  4277 PWs)   bands (ev):

   -69.2057 -39.0870 -35.2949 -35.2814 -35.2664 -15.4363 -15.3162 -15.1895
    12.4546  14.5839  15.1527  16.1166  16.3544  16.8036  18.5180  18.6540
    19.2401  19.4497

          k = 0.0000 0.2000 0.4000 (  4278 PWs)   bands (ev):

   -69.2049 -39.0785 -35.3033 -35.2826 -35.2653 -15.5212 -15.3075 -15.1829
    13.2977  14.5090  15.5470  16.1009  16.3935  16.5249  18.2064  18.3881
    19.3829  19.5782

          k = 0.0000 0.2000-0.5000 (  4286 PWs)   bands (ev):

   -69.2045 -39.0753 -35.3065 -35.2830 -35.2648 -15.5535 -15.3041 -15.1803
    13.8604  14.2419  15.7161  16.1628  16.3440  16.4704  18.1419  18.1922
    19.4146  19.6776

          k = 0.0000 0.3000 0.3000 (  4278 PWs)   bands (ev):

   -69.2047 -39.0745 -35.2995 -35.2919 -35.2651 -15.4295 -15.4105 -15.1801
    12.9886  14.4730  15.6947  15.8843  16.3989  16.4420  18.5202  18.8391
    19.1304  19.7648

          k = 0.0000 0.3000 0.4000 (  4288 PWs)   bands (ev):

   -69.2038 -39.0644 -35.3068 -35.2967 -35.2640 -15.5027 -15.4071 -15.1725
    13.4474  14.2810  15.7855  16.0914  16.1602  16.7674  18.3518  18.8593
    19.3426  20.1179

          k = 0.0000 0.3000-0.5000 (  4300 PWs)   bands (ev):

   -69.2035 -39.0605 -35.3103 -35.2979 -35.2636 -15.5336 -15.4026 -15.1696
    13.6620  14.1444  15.8270  15.8859  16.3136  17.1715  18.0905  18.8624
    19.5226  20.3181

          k = 0.0000 0.4000 0.4000 (  4300 PWs)   bands (ev):

   -69.2030 -39.0529 -35.3104 -35.3075 -35.2629 -15.4908 -15.4836 -15.1641
    13.4637  14.0815  15.5978  15.7581  16.8928  17.3506  18.5853  19.0571
    19.2680  20.5476

          k = 0.0000 0.4000-0.5000 (  4298 PWs)   bands (ev):

   -69.2026 -39.0485 -35.3134 -35.3100 -35.2625 -15.5174 -15.4814 -15.1608
    13.4497  14.0075  15.5799  15.5913  17.1829  18.0958  18.1427  19.1985
    19.3340  20.7681

          k = 0.0000-0.5000-0.5000 (  4324 PWs)   bands (ev):

   -69.2023 -39.0439 -35.3146 -35.3146 -35.2622 -15.5113 -15.5113 -15.1575
    13.3649  13.9511  15.4902  15.4902  17.7653  18.1970  18.7152  18.7152
    19.4578  20.9305

          k = 0.1000 0.1000 0.1000 (  4262 PWs)   bands (ev):

   -69.2082 -39.1102 -35.2748 -35.2748 -35.2709 -15.2512 -15.2413 -15.2413
    10.7651  14.1725  14.1725  16.5160  16.5160  16.8987  18.9341  18.9341
    19.8711  20.6342

          k = 0.1000 0.1000 0.2000 (  4273 PWs)   bands (ev):

   -69.2073 -39.1026 -35.2829 -35.2735 -35.2710 -15.3348 -15.2395 -15.2357
    11.3365  14.4267  14.4477  16.3882  16.4401  16.9560  18.6780  19.0683
    19.4056  19.9643

          k = 0.1000 0.1000 0.3000 (  4271 PWs)   bands (ev):

   -69.2063 -39.0932 -35.2931 -35.2720 -35.2709 -15.4438 -15.2301 -15.2287
    12.1962  14.7059  14.8114  16.3375  16.3379  16.8862  18.3032  18.9278
    19.2890  19.3769

          k = 0.1000 0.1000 0.4000 (  4274 PWs)   bands (ev):

   -69.2054 -39.0857 -35.3013 -35.2707 -35.2707 -15.5308 -15.2230 -15.2224
    13.1888  14.6621  15.2442  16.2076  16.4171  16.7663  17.9267  18.5945
    18.8165  19.5639

          k = 0.1000 0.1000-0.5000 (  4282 PWs)   bands (ev):

   -69.2051 -39.0828 -35.3045 -35.2707 -35.2702 -15.5638 -15.2209 -15.2195
    13.9490  14.2663  15.4939  16.0997  16.5424  16.6870  17.7571  18.3702
    18.6484  19.6884

          k = 0.1000 0.2000 0.2000 (  4282 PWs)   bands (ev):

   -69.2065 -39.0939 -35.2856 -35.2794 -35.2712 -15.3339 -15.3166 -15.2304
    11.8616  14.5872  14.7667  16.2007  16.3093  16.8242  18.7768  19.0440
    19.2042  19.6787

          k = 0.1000 0.2000 0.3000 (  4287 PWs)   bands (ev):

   -69.2054 -39.0832 -35.2949 -35.2815 -35.2705 -15.4322 -15.3132 -15.2217
    12.6242  14.7336  15.1553  16.0617  16.2159  16.5699  18.6392  18.8359
    19.2255  19.5764

          k = 0.1000 0.2000 0.4000 (  4279 PWs)   bands (ev):

   -69.2046 -39.0745 -35.3037 -35.2822 -35.2697 -15.5166 -15.3045 -15.2145
    13.4450  14.6570  15.4530  15.9830  16.2796  16.4358  18.4000  18.4743
    19.0330  20.0423

          k = 0.1000 0.2000-0.5000 (  4290 PWs)   bands (ev):

   -69.2042 -39.0711 -35.3070 -35.2825 -35.2694 -15.5487 -15.3011 -15.2117
    13.9840  14.3811  15.5812  15.9415  16.2957  16.5307  18.2040  18.3559
    18.8906  20.4133

          k = 0.1000 0.3000 0.3000 (  4292 PWs)   bands (ev):

   -69.2044 -39.0707 -35.2990 -35.2922 -35.2694 -15.4250 -15.4082 -15.2121
    13.1679  14.6234  15.6872  15.8413  16.2023  16.2537  18.6255  18.9932
    19.0880  19.9874

          k = 0.1000 0.3000 0.4000 (  4285 PWs)   bands (ev):

   -69.2035 -39.0606 -35.3067 -35.2964 -35.2684 -15.4991 -15.4043 -15.2043
    13.6188  14.4308  15.7340  15.8961  16.1727  16.6023  18.3885  18.9386
    19.1382  20.5288

          k = 0.1000 0.3000-0.5000 (  4308 PWs)   bands (ev):

   -69.2032 -39.0567 -35.3103 -35.2974 -35.2680 -15.5300 -15.4000 -15.2013
    13.8179  14.2993  15.7534  15.7670  16.2726  17.0248  18.1122  18.9942
    19.0301  20.7100

          k = 0.1000 0.4000 0.4000 (  4297 PWs)   bands (ev):

   -69.2027 -39.0493 -35.3098 -35.3072 -35.2674 -15.4877 -15.4813 -15.1960
    13.6329  14.2340  15.5659  15.6948  16.8187  17.1319  18.4666  18.8173
    19.3727  20.8229

          k = 0.1000 0.4000-0.5000 (  4296 PWs)   bands (ev):

   -69.2023 -39.0449 -35.3129 -35.3094 -35.2670 -15.5148 -15.4790 -15.1928
    13.6138  14.1623  15.5460  15.5532  17.0824  17.8047  18.0881  18.7791
    19.4428  20.9290

          k = 0.1000-0.5000-0.5000 (  4288 PWs)   bands (ev):

   -69.2020 -39.0404 -35.3139 -35.3139 -35.2665 -15.5090 -15.5090 -15.1896
    13.5307  14.1053  15.4648  15.4648  17.7690  18.1981  18.2044  18.2044
    19.5621  21.5824

          k = 0.2000 0.2000 0.2000 (  4287 PWs)   bands (ev):

   -69.2056 -39.0846 -35.2842 -35.2842 -35.2774 -15.3277 -15.3107 -15.3107
    12.3681  14.9109  14.9109  16.0807  16.0807  16.4312  18.9669  18.9669
    19.4619  19.9326

          k = 0.2000 0.2000 0.3000 (  4291 PWs)   bands (ev):

   -69.2046 -39.0731 -35.2952 -35.2826 -35.2800 -15.4214 -15.3071 -15.3034
    13.0838  15.1119  15.1613  15.9291  15.9530  16.1233  18.8450  18.9687
    19.3184  19.9271

          k = 0.2000 0.2000 0.4000 (  4289 PWs)   bands (ev):

   -69.2037 -39.0637 -35.3048 -35.2814 -35.2812 -15.5045 -15.2974 -15.2959
    13.8037  14.9409  15.3129  15.7849  16.0492  16.2661  18.5589  18.7087
    18.9271  20.4839

          k = 0.2000 0.2000-0.5000 (  4302 PWs)   bands (ev):

   -69.2034 -39.0602 -35.3085 -35.2819 -35.2807 -15.5361 -15.2952 -15.2916
    14.2309  14.6412  15.4186  15.7052  16.1279  16.4989  18.2213  18.6359
    18.8078  20.5935

          k = 0.2000 0.3000 0.3000 (  4294 PWs)   bands (ev):

   -69.2035 -39.0606 -35.2975 -35.2930 -35.2806 -15.4134 -15.4022 -15.2952
    13.6643  15.0188  15.6530  15.7397  15.7729  15.8881  18.7368  18.9279
    19.4199  20.1874

          k = 0.2000 0.3000 0.4000 (  4296 PWs)   bands (ev):

   -69.2027 -39.0504 -35.3063 -35.2955 -35.2800 -15.4896 -15.3970 -15.2869
    14.0905  14.7991  15.5834  15.6409  15.9950  16.2828  18.4328  18.6941
    19.3999  20.5240

          k = 0.2000 0.3000-0.5000 (  4288 PWs)   bands (ev):

   -69.2023 -39.0466 -35.3103 -35.2960 -35.2797 -15.5204 -15.3931 -15.2837
    14.2382  14.6708  15.5418  15.6096  16.0956  16.6858  18.1154  18.5988
    19.3714  20.6976

          k = 0.2000 0.4000 0.4000 (  4296 PWs)   bands (ev):

   -69.2018 -39.0396 -35.3082 -35.3064 -35.2789 -15.4795 -15.4752 -15.2790
    14.1107  14.6220  15.4917  15.5670  16.5805  16.5872  18.3637  18.4143
    19.7069  20.7841

          k = 0.2000 0.4000-0.5000 (  4300 PWs)   bands (ev):

   -69.2015 -39.0355 -35.3117 -35.3078 -35.2785 -15.5078 -15.4727 -15.2759
    14.0768  14.5598  15.4703  15.4744  16.7318  17.1348  18.0226  18.3742
    19.7735  20.9838

          k = 0.2000-0.5000-0.5000 (  4300 PWs)   bands (ev):

   -69.2012 -39.0313 -35.3123 -35.3123 -35.2780 -15.5029 -15.5029 -15.2730
    14.0017  14.5077  15.4086  15.4086  17.3543  17.3543  17.7788  18.1833
    19.8816  21.2325

          k = 0.3000 0.3000 0.3000 (  4311 PWs)   bands (ev):

   -69.2025 -39.0481 -35.2956 -35.2956 -35.2928 -15.4010 -15.3946 -15.3946
    14.3112  15.2846  15.5693  15.5693  15.6452  15.6452  18.6740  18.6740
    19.9780  19.9780

          k = 0.3000 0.3000 0.4000 (  4309 PWs)   bands (ev):

   -69.2016 -39.0379 -35.3060 -35.2944 -35.2941 -15.4779 -15.3886 -15.3871
    14.6592  15.0418  15.4871  15.5722  15.7250  16.0894  18.3376  18.4734
    19.9115  20.5338

          k = 0.3000 0.3000-0.5000 (  4280 PWs)   bands (ev):

   -69.2013 -39.0340 -35.3102 -35.2948 -35.2936 -15.5086 -15.3862 -15.3826
    14.6718  14.9570  15.4578  15.5392  15.8954  16.4307  18.0382  18.4036
    19.8975  20.7766

          k = 0.3000 0.4000 0.4000 (  4296 PWs)   bands (ev):

   -69.2008 -39.0277 -35.3062 -35.3055 -35.2932 -15.4693 -15.4677 -15.3803
    14.7730  15.0336  15.4274  15.5516  16.0094  16.2108  18.1568  18.2608
    20.2450  20.8075

          k = 0.3000 0.4000-0.5000 (  4298 PWs)   bands (ev):

   -69.2005 -39.0238 -35.3103 -35.3058 -35.2927 -15.4991 -15.4649 -15.3774
    14.7239  14.9990  15.4335  15.4490  16.2187  16.5007  17.9310  18.2043
    20.3028  21.0376

          k = 0.3000-0.5000-0.5000 (  4296 PWs)   bands (ev):

   -69.2001 -39.0199 -35.3103 -35.3103 -35.2922 -15.4954 -15.4954 -15.3748
    14.6881  14.9965  15.3720  15.3720  16.5964  16.5964  17.7910  18.1051
    20.4065  21.2580

          k = 0.4000 0.4000 0.4000 (  4305 PWs)   bands (ev):

   -69.2000 -39.0181 -35.3048 -35.3046 -35.3046 -15.4616 -15.4616 -15.4608
    15.0742  15.4320  15.4320  15.6545  15.8425  15.8425  18.0461  18.0461
    20.8388  20.8388

          k = 0.4000 0.4000-0.5000 (  4286 PWs)   bands (ev):

   -69.1996 -39.0144 -35.3091 -35.3045 -35.3040 -15.4921 -15.4593 -15.4579
    15.1912  15.2361  15.5116  15.6246  15.8261  16.1001  17.8749  18.0172
    20.8519  21.1223

          k = 0.4000-0.5000-0.5000 (  4280 PWs)   bands (ev):

   -69.1993 -39.0107 -35.3086 -35.3086 -35.3036 -15.4894 -15.4894 -15.4562
    15.3774  15.3960  15.4135  15.4135  16.0282  16.0282  17.8008  17.9324
    20.9986  21.2787

          k =-0.5000-0.5000-0.5000 (  4272 PWs)   bands (ev):

   -69.1990 -39.0072 -35.3080 -35.3080 -35.3080 -15.4871 -15.4871 -15.4871
    15.5178  15.5178  15.5178  15.7401  15.7401  15.7401  17.8046  17.8046
    21.2867  21.2867

     the Fermi energy is    17.7495 ev

!    total energy              =    -448.58660635 Ry
     estimated scf accuracy    <          1.0E-09 Ry
     smearing contrib. (-TS)   =      -0.00005151 Ry
     internal energy E=F+TS    =    -448.58655484 Ry

     The total energy is F=E-TS. E is the sum of the following terms:
     one-electron contribution =    -151.36082477 Ry
     hartree contribution      =      91.63997615 Ry
     xc contribution           =     -52.89135629 Ry
     ewald contribution        =    -259.82070277 Ry
     one-center paw contrib.   =     -76.15364716 Ry

     convergence has been achieved in  30 iterations

     negative rho (up, down):  9.816E-04 0.000E+00

     Forces acting on atoms (cartesian axes, Ry/au):

     atom    1 type  1   force =     0.00000000    0.00000000    0.00000000
     atom    2 type  2   force =     0.00000000    0.00000000    0.00000000

     Total force =     0.000000     Total SCF correction =     0.000000


     Computing stress (Cartesian axis) and pressure


     negative rho (up, down):  9.816E-04 0.000E+00
          total   stress  (Ry/bohr**3)                   (kbar)     P=       28.21
   0.00019176   0.00000000   0.00000000           28.21        0.00        0.00
   0.00000000   0.00019176   0.00000000            0.00       28.21        0.00
   0.00000000   0.00000000   0.00019176            0.00        0.00       28.21


     Writing all to output data dir ./out/TiFe10.save/ :
     XML data file, charge density, pseudopotentials, collected wavefunctions

     init_run     :      1.82s CPU      1.95s WALL (       1 calls)
     electrons    :    106.43s CPU    113.84s WALL (       1 calls)
     forces       :      0.61s CPU      0.68s WALL (       1 calls)
     stress       :      2.88s CPU      3.08s WALL (       1 calls)

     Called by init_run:
     wfcinit      :      1.22s CPU      1.25s WALL (       1 calls)
     potinit      :      0.16s CPU      0.18s WALL (       1 calls)
     hinit0       :      0.22s CPU      0.23s WALL (       1 calls)

     Called by electrons:
     c_bands      :     79.12s CPU     81.26s WALL (      30 calls)
     sum_band     :     16.83s CPU     19.65s WALL (      30 calls)
     v_of_rho     :      1.56s CPU      1.61s WALL (      31 calls)
     newd         :      5.74s CPU      7.91s WALL (      31 calls)
     PAW_pot      :      3.06s CPU      3.34s WALL (      31 calls)
     mix_rho      :      0.25s CPU      0.26s WALL (      30 calls)

     Called by c_bands:
     init_us_2    :      1.64s CPU      1.66s WALL (    3528 calls)
     cegterg      :     75.58s CPU     77.69s WALL (    1680 calls)

     Called by *egterg:
     cdiaghg      :      1.92s CPU      1.94s WALL (    5882 calls)
     h_psi        :     55.92s CPU     57.95s WALL (    5938 calls)
     s_psi        :      3.48s CPU      3.50s WALL (    5938 calls)
     g_psi        :      0.17s CPU      0.17s WALL (    4202 calls)

     Called by h_psi:
     h_psi:calbec :      5.30s CPU      5.43s WALL (    5938 calls)
     vloc_psi     :     46.61s CPU     48.49s WALL (    5938 calls)
     add_vuspsi   :      3.51s CPU      3.53s WALL (    5938 calls)

     General routines
     calbec       :      7.85s CPU      8.02s WALL (    8570 calls)
     fft          :      0.74s CPU      0.82s WALL (     426 calls)
     ffts         :      0.03s CPU      0.03s WALL (      61 calls)
     fftw         :     44.55s CPU     46.46s WALL (  181890 calls)
     interpolate  :      0.08s CPU      0.10s WALL (      31 calls)

     Parallel routines

     PWSCF        :   1m51.97s CPU   1m59.84s WALL


   This run was terminated on:   1:11:25  30Oct2025            

=------------------------------------------------------------------------------=
   JOB DONE.
=------------------------------------------------------------------------------=
