
     Program PWSCF v.7.4 starts on 28Oct2025 at 10:52:51 

     This program is part of the open-source Quantum ESPRESSO suite
     for quantum simulation of materials; please cite
         "P. Giannozzi et al., J. Phys.:Condens. Matter 21 395502 (2009);
         "P. Giannozzi et al., J. Phys.:Condens. Matter 29 465901 (2017);
         "P. Giannozzi et al., J. Chem. Phys. 152 154105 (2020);
          URL http://www.quantum-espresso.org", 
     in publications or presentations arising from this work. More details at
     http://www.quantum-espresso.org/quote

     Parallel version (MPI & OpenMP), running on      16 processor cores
     Number of MPI processes:                16
     Threads/MPI process:                     1

     MPI processes distributed on     1 nodes
     230679 MiB available memory on the printing compute node when the environment starts

     Reading input from TiFe_ecutrho_convergence/TiFe2_factor10.in

     Current dimensions of program PWSCF are:
     Max number of different atomic species (ntypx) = 10
     Max number of k-points (npk) =  40000
     Max angular momentum in pseudopotentials (lmaxx) =  4
     file Fe.pbe-spn-kjpaw_psl.0.2.1.UPF: wavefunction(s)  3D renormalized

     IMPORTANT: XC functional enforced from input :
     Exchange-correlation= PBE
                           (   1   4   3   4   0   0   0)
     Any further DFT definition will be discarded
     Please, verify this is what you really want

     Message from routine setup:
     using ibrav=0 with symmetry is DISCOURAGED, use correct ibrav instead

     R & G space division:  proc/nbgrp/npool/nimage =      16
     Subspace diagonalization in iterative solution of the eigenvalue problem:
     a serial algorithm will be used


     Parallelization info
     --------------------
     sticks:   dense  smooth     PW     G-vecs:    dense   smooth      PW
     Min         214      85     25                 9457     2399     375
     Max         216      86     26                 9459     2402     378
     Sum        3433    1369    401               151323    38401    6031

     Using Slab Decomposition



     bravais-lattice index     =            0
     lattice parameter (alat)  =       5.5533  a.u.
     unit-cell volume          =     171.2590 (a.u.)^3
     number of atoms/cell      =            2
     number of atomic types    =            2
     number of electrons       =        28.00
     number of Kohn-Sham states=           18
     kinetic-energy cutoff     =     140.0000  Ry
     charge density cutoff     =    1400.0000  Ry
     scf convergence threshold =      1.0E-08
     mixing beta               =       0.7000
     number of iterations used =            8  plain     mixing
     Exchange-correlation= PBE
                           (   1   4   3   4   0   0   0)

     celldm(1)=   5.553300  celldm(2)=   0.000000  celldm(3)=   0.000000
     celldm(4)=   0.000000  celldm(5)=   0.000000  celldm(6)=   0.000000

     crystal axes: (cart. coord. in units of alat)
               a(1) = (   1.000000   0.000000   0.000000 )  
               a(2) = (   0.000000   1.000000   0.000000 )  
               a(3) = (   0.000000   0.000000   1.000000 )  

     reciprocal axes: (cart. coord. in units 2 pi/alat)
               b(1) = (  1.000000  0.000000  0.000000 )  
               b(2) = (  0.000000  1.000000  0.000000 )  
               b(3) = (  0.000000  0.000000  1.000000 )  


     PseudoPot. # 1 for Fe read from file:
     ./Fe.pbe-spn-kjpaw_psl.0.2.1.UPF
     MD5 check sum: e86618425769142926afa95317d90200
     Pseudo is Projector augmented-wave + core cor, Zval = 16.0
     Generated using "atomic" code by A. Dal Corso  v.5.0.99 svn rev. 10869
     Shape of augmentation charge: PSQ
     Using radial grid of 1191 points,  6 beta functions with: 
                l(1) =   0
                l(2) =   0
                l(3) =   1
                l(4) =   1
                l(5) =   2
                l(6) =   2
     Q(r) pseudized with 0 coefficients 


     PseudoPot. # 2 for Ti read from file:
     ./Ti_pbe_v1.4.uspp.F.UPF
     MD5 check sum: 88a00a6731bd790ddea75d31a80cb452
     Pseudo is Ultrasoft + core correction, Zval = 12.0
     Generated by new atomic code, or converted to UPF format
     Using radial grid of  851 points,  6 beta functions with: 
                l(1) =   0
                l(2) =   0
                l(3) =   1
                l(4) =   1
                l(5) =   2
                l(6) =   2
     Q(r) pseudized with  6 coefficients,  rinner =    1.000   1.000   1.000
                                                       1.000   1.000

     atomic species   valence    mass     pseudopotential
     Fe               16.00    55.84500     Fe( 1.00)
     Ti               12.00    47.86700     Ti( 1.00)

     48 Sym. Ops., with inversion, found



   Cartesian axes

     site n.     atom                  positions (alat units)
         1        Fe     tau(   1) = (   0.5000000   0.5000000   0.5000000  )
         2        Ti     tau(   2) = (   0.0000000   0.0000000   0.0000000  )

     number of k points=    35  Marzari-Vanderbilt smearing, width (Ry)=  0.0050
                       cart. coord. in units 2pi/alat
        k(    1) = (   0.0000000   0.0000000   0.0000000), wk =   0.0027435
        k(    2) = (   0.0000000   0.0000000   0.1111111), wk =   0.0164609
        k(    3) = (   0.0000000   0.0000000   0.2222222), wk =   0.0164609
        k(    4) = (   0.0000000   0.0000000   0.3333333), wk =   0.0164609
        k(    5) = (   0.0000000   0.0000000   0.4444444), wk =   0.0164609
        k(    6) = (   0.0000000   0.1111111   0.1111111), wk =   0.0329218
        k(    7) = (   0.0000000   0.1111111   0.2222222), wk =   0.0658436
        k(    8) = (   0.0000000   0.1111111   0.3333333), wk =   0.0658436
        k(    9) = (   0.0000000   0.1111111   0.4444444), wk =   0.0658436
        k(   10) = (   0.0000000   0.2222222   0.2222222), wk =   0.0329218
        k(   11) = (   0.0000000   0.2222222   0.3333333), wk =   0.0658436
        k(   12) = (   0.0000000   0.2222222   0.4444444), wk =   0.0658436
        k(   13) = (   0.0000000   0.3333333   0.3333333), wk =   0.0329218
        k(   14) = (   0.0000000   0.3333333   0.4444444), wk =   0.0658436
        k(   15) = (   0.0000000   0.4444444   0.4444444), wk =   0.0329218
        k(   16) = (   0.1111111   0.1111111   0.1111111), wk =   0.0219479
        k(   17) = (   0.1111111   0.1111111   0.2222222), wk =   0.0658436
        k(   18) = (   0.1111111   0.1111111   0.3333333), wk =   0.0658436
        k(   19) = (   0.1111111   0.1111111   0.4444444), wk =   0.0658436
        k(   20) = (   0.1111111   0.2222222   0.2222222), wk =   0.0658436
        k(   21) = (   0.1111111   0.2222222   0.3333333), wk =   0.1316872
        k(   22) = (   0.1111111   0.2222222   0.4444444), wk =   0.1316872
        k(   23) = (   0.1111111   0.3333333   0.3333333), wk =   0.0658436
        k(   24) = (   0.1111111   0.3333333   0.4444444), wk =   0.1316872
        k(   25) = (   0.1111111   0.4444444   0.4444444), wk =   0.0658436
        k(   26) = (   0.2222222   0.2222222   0.2222222), wk =   0.0219479
        k(   27) = (   0.2222222   0.2222222   0.3333333), wk =   0.0658436
        k(   28) = (   0.2222222   0.2222222   0.4444444), wk =   0.0658436
        k(   29) = (   0.2222222   0.3333333   0.3333333), wk =   0.0658436
        k(   30) = (   0.2222222   0.3333333   0.4444444), wk =   0.1316872
        k(   31) = (   0.2222222   0.4444444   0.4444444), wk =   0.0658436
        k(   32) = (   0.3333333   0.3333333   0.3333333), wk =   0.0219479
        k(   33) = (   0.3333333   0.3333333   0.4444444), wk =   0.0658436
        k(   34) = (   0.3333333   0.4444444   0.4444444), wk =   0.0658436
        k(   35) = (   0.4444444   0.4444444   0.4444444), wk =   0.0219479

     Dense  grid:   151323 G-vectors     FFT dimensions: (  72,  72,  72)

     Smooth grid:    38401 G-vectors     FFT dimensions: (  45,  45,  45)

     Estimated max dynamical RAM per process >      44.08 MB

     Estimated total dynamical RAM >     705.21 MB

     Check: negative core charge=   -0.000003

     Initial potential from superposition of free atoms

     starting charge      26.9995, renormalised to      28.0000

     negative rho (up, down):  1.378E-03 0.000E+00
     Starting wfcs are   23 randomized atomic wfcs
     Checking if some PAW data can be deallocated... 

     total cpu time spent up to now is        1.3 secs

     per-process dynamical memory:   148.9 Mb

     Self-consistent Calculation

     iteration #  1     ecut=   140.00 Ry     beta= 0.70
     Davidson diagonalization with overlap
     ethr =  1.00E-02,  avg # of iterations =  2.1

     negative rho (up, down):  7.047E-05 0.000E+00

     total cpu time spent up to now is        1.8 secs

     WARNING: integrated charge=    28.00076224, expected=    28.00000000

     total energy              =    -434.87327387 Ry
     estimated scf accuracy    <      17.48397546 Ry

     iteration #  2     ecut=   140.00 Ry     beta= 0.70
     Davidson diagonalization with overlap
     ethr =  1.00E-02,  avg # of iterations =  6.1

     negative rho (up, down):  2.309E-05 0.000E+00

     total cpu time spent up to now is        2.7 secs

     WARNING: integrated charge=    28.00058151, expected=    28.00000000

     total energy              =    -448.52024168 Ry
     estimated scf accuracy    <      66.13001419 Ry

     iteration #  3     ecut=   140.00 Ry     beta= 0.70
     Davidson diagonalization with overlap
     ethr =  1.00E-02,  avg # of iterations =  3.1

     negative rho (up, down):  2.125E-04 0.000E+00

     total cpu time spent up to now is        3.4 secs

     WARNING: integrated charge=    28.00046386, expected=    28.00000000

     total energy              =    -448.59462313 Ry
     estimated scf accuracy    <      16.78603372 Ry

     iteration #  4     ecut=   140.00 Ry     beta= 0.70
     Davidson diagonalization with overlap
     ethr =  1.00E-02,  avg # of iterations =  2.2

     negative rho (up, down):  2.570E-04 0.000E+00

     total cpu time spent up to now is        3.9 secs

     WARNING: integrated charge=    28.00045099, expected=    28.00000000

     total energy              =    -449.11478322 Ry
     estimated scf accuracy    <       4.69992788 Ry

     iteration #  5     ecut=   140.00 Ry     beta= 0.70
     Davidson diagonalization with overlap
     ethr =  1.00E-02,  avg # of iterations =  1.0

     negative rho (up, down):  3.320E-04 0.000E+00

     total cpu time spent up to now is        4.4 secs

     WARNING: integrated charge=    28.00042040, expected=    28.00000000

     total energy              =    -449.10997220 Ry
     estimated scf accuracy    <       4.29786483 Ry

     iteration #  6     ecut=   140.00 Ry     beta= 0.70
     Davidson diagonalization with overlap
     ethr =  1.00E-02,  avg # of iterations =  1.1

     negative rho (up, down):  1.158E-03 0.000E+00

     total cpu time spent up to now is        4.9 secs

     WARNING: integrated charge=    28.00020391, expected=    28.00000000

     total energy              =    -447.88011005 Ry
     estimated scf accuracy    <       4.56455211 Ry

     iteration #  7     ecut=   140.00 Ry     beta= 0.70
     Davidson diagonalization with overlap
     ethr =  1.00E-02,  avg # of iterations =  3.4

     negative rho (up, down):  1.054E-03 0.000E+00

     total cpu time spent up to now is        5.4 secs

     WARNING: integrated charge=    28.00018616, expected=    28.00000000

     total energy              =    -448.60580119 Ry
     estimated scf accuracy    <       4.29426005 Ry

     iteration #  8     ecut=   140.00 Ry     beta= 0.70
     Davidson diagonalization with overlap
     ethr =  1.00E-02,  avg # of iterations =  1.0

     negative rho (up, down):  7.658E-04 0.000E+00

     total cpu time spent up to now is        5.9 secs

     WARNING: integrated charge=    28.00013779, expected=    28.00000000

     total energy              =    -448.38437050 Ry
     estimated scf accuracy    <       1.59665422 Ry

     iteration #  9     ecut=   140.00 Ry     beta= 0.70
     Davidson diagonalization with overlap
     ethr =  5.70E-03,  avg # of iterations =  1.9

     negative rho (up, down):  7.645E-04 0.000E+00

     total cpu time spent up to now is        6.4 secs

     WARNING: integrated charge=    28.00013568, expected=    28.00000000

     total energy              =    -448.62202100 Ry
     estimated scf accuracy    <       0.47099147 Ry

     iteration # 10     ecut=   140.00 Ry     beta= 0.70
     Davidson diagonalization with overlap
     ethr =  1.68E-03,  avg # of iterations =  1.2

     negative rho (up, down):  7.039E-04 0.000E+00

     total cpu time spent up to now is        6.9 secs

     WARNING: integrated charge=    28.00009700, expected=    28.00000000

     total energy              =    -448.67998086 Ry
     estimated scf accuracy    <       0.53974933 Ry

     iteration # 11     ecut=   140.00 Ry     beta= 0.70
     Davidson diagonalization with overlap
     ethr =  1.68E-03,  avg # of iterations =  1.4

     negative rho (up, down):  6.929E-04 0.000E+00

     total cpu time spent up to now is        7.4 secs

     WARNING: integrated charge=    27.99999314, expected=    28.00000000

     total energy              =    -448.63935995 Ry
     estimated scf accuracy    <       1.43257299 Ry

     iteration # 12     ecut=   140.00 Ry     beta= 0.70
     Davidson diagonalization with overlap
     ethr =  1.68E-03,  avg # of iterations =  1.0

     negative rho (up, down):  7.400E-04 0.000E+00

     total cpu time spent up to now is        7.9 secs

     WARNING: integrated charge=    28.00001077, expected=    28.00000000

     total energy              =    -448.61581431 Ry
     estimated scf accuracy    <       0.73031633 Ry

     iteration # 13     ecut=   140.00 Ry     beta= 0.70
     Davidson diagonalization with overlap
     ethr =  1.68E-03,  avg # of iterations =  1.0

     negative rho (up, down):  7.396E-04 0.000E+00

     total cpu time spent up to now is        8.3 secs

     WARNING: integrated charge=    27.99999395, expected=    28.00000000

     total energy              =    -448.61926152 Ry
     estimated scf accuracy    <       0.32400914 Ry

     iteration # 14     ecut=   140.00 Ry     beta= 0.70
     Davidson diagonalization with overlap
     ethr =  1.16E-03,  avg # of iterations =  1.0

     negative rho (up, down):  7.577E-04 0.000E+00

     total cpu time spent up to now is        8.8 secs

     WARNING: integrated charge=    27.99999498, expected=    28.00000000

     total energy              =    -448.63132512 Ry
     estimated scf accuracy    <       0.25466553 Ry

     iteration # 15     ecut=   140.00 Ry     beta= 0.70
     Davidson diagonalization with overlap
     ethr =  9.10E-04,  avg # of iterations =  1.0

     negative rho (up, down):  7.775E-04 0.000E+00

     total cpu time spent up to now is        9.3 secs

     WARNING: integrated charge=    27.99998936, expected=    28.00000000

     total energy              =    -448.63433785 Ry
     estimated scf accuracy    <       0.35007453 Ry

     iteration # 16     ecut=   140.00 Ry     beta= 0.70
     Davidson diagonalization with overlap
     ethr =  9.10E-04,  avg # of iterations =  1.0

     negative rho (up, down):  6.855E-04 0.000E+00

     total cpu time spent up to now is        9.8 secs

     WARNING: integrated charge=    28.00002864, expected=    28.00000000

     total energy              =    -448.57938799 Ry
     estimated scf accuracy    <       0.36133287 Ry

     iteration # 17     ecut=   140.00 Ry     beta= 0.70
     Davidson diagonalization with overlap
     ethr =  9.10E-04,  avg # of iterations =  1.3

     negative rho (up, down):  9.061E-04 0.000E+00

     total cpu time spent up to now is       10.3 secs

     WARNING: integrated charge=    27.99994157, expected=    28.00000000

     total energy              =    -448.58658000 Ry
     estimated scf accuracy    <       0.04864477 Ry

     iteration # 18     ecut=   140.00 Ry     beta= 0.70
     Davidson diagonalization with overlap
     ethr =  1.74E-04,  avg # of iterations =  2.3

     negative rho (up, down):  9.929E-04 0.000E+00

     total cpu time spent up to now is       10.8 secs

     WARNING: integrated charge=    27.99996328, expected=    28.00000000

     total energy              =    -448.57611275 Ry
     estimated scf accuracy    <       0.05119262 Ry

     iteration # 19     ecut=   140.00 Ry     beta= 0.70
     Davidson diagonalization with overlap
     ethr =  1.74E-04,  avg # of iterations =  3.6

     negative rho (up, down):  9.631E-04 0.000E+00

     total cpu time spent up to now is       11.3 secs

     WARNING: integrated charge=    27.99998048, expected=    28.00000000

     total energy              =    -448.58549811 Ry
     estimated scf accuracy    <       0.05024892 Ry

     iteration # 20     ecut=   140.00 Ry     beta= 0.70
     Davidson diagonalization with overlap
     ethr =  1.74E-04,  avg # of iterations =  1.0

     negative rho (up, down):  9.974E-04 0.000E+00

     total cpu time spent up to now is       11.8 secs

     total energy              =    -448.58562641 Ry
     estimated scf accuracy    <       0.00896020 Ry

     iteration # 21     ecut=   140.00 Ry     beta= 0.70
     Davidson diagonalization with overlap
     ethr =  3.20E-05,  avg # of iterations =  3.0

     negative rho (up, down):  9.732E-04 0.000E+00

     total cpu time spent up to now is       12.3 secs

     WARNING: integrated charge=    28.00000313, expected=    28.00000000

     total energy              =    -448.58662722 Ry
     estimated scf accuracy    <       0.00053900 Ry

     iteration # 22     ecut=   140.00 Ry     beta= 0.70
     Davidson diagonalization with overlap
     ethr =  1.92E-06,  avg # of iterations =  4.1

     negative rho (up, down):  9.878E-04 0.000E+00

     total cpu time spent up to now is       12.9 secs

     total energy              =    -448.58642671 Ry
     estimated scf accuracy    <       0.00127481 Ry

     iteration # 23     ecut=   140.00 Ry     beta= 0.70
     Davidson diagonalization with overlap
     ethr =  1.92E-06,  avg # of iterations =  3.2

     negative rho (up, down):  9.883E-04 0.000E+00

     total cpu time spent up to now is       13.5 secs

     total energy              =    -448.58657256 Ry
     estimated scf accuracy    <       0.00015263 Ry

     iteration # 24     ecut=   140.00 Ry     beta= 0.70
     Davidson diagonalization with overlap
     ethr =  5.45E-07,  avg # of iterations =  1.3

     negative rho (up, down):  9.869E-04 0.000E+00

     total cpu time spent up to now is       13.9 secs

     total energy              =    -448.58658354 Ry
     estimated scf accuracy    <       0.00000203 Ry

     iteration # 25     ecut=   140.00 Ry     beta= 0.70
     Davidson diagonalization with overlap
     ethr =  7.24E-09,  avg # of iterations =  4.9

     negative rho (up, down):  9.861E-04 0.000E+00

     total cpu time spent up to now is       14.6 secs

     total energy              =    -448.58658449 Ry
     estimated scf accuracy    <       0.00001078 Ry

     iteration # 26     ecut=   140.00 Ry     beta= 0.70
     Davidson diagonalization with overlap
     ethr =  7.24E-09,  avg # of iterations =  3.5

     negative rho (up, down):  9.860E-04 0.000E+00

     total cpu time spent up to now is       15.2 secs

     End of self-consistent calculation

          k = 0.0000 0.0000 0.0000 (  4801 PWs)   bands (ev):

   -69.2040 -39.1404 -35.2659 -35.2659 -35.2659 -15.2353 -15.2353 -15.2353
    10.1529  13.8669  13.8669  16.6616  16.6616  16.6616  19.0047  19.0047
    20.9452  20.9452

          k = 0.0000 0.0000 0.1111 (  4821 PWs)   bands (ev):

   -69.2036 -39.1373 -35.2696 -35.2653 -35.2653 -15.2784 -15.2327 -15.2327
    10.4101  13.9908  13.9987  16.6431  16.6431  16.7177  18.8475  19.0623
    20.5827  20.5827

          k = 0.0000 0.0000 0.2222 (  4801 PWs)   bands (ev):

   -69.2025 -39.1293 -35.2789 -35.2639 -35.2639 -15.3865 -15.2262 -15.2262
    11.1437  14.3129  14.3487  16.6065  16.6065  16.8691  18.4026  19.1659
    19.8175  19.8175

          k = 0.0000 0.0000 0.3333 (  4789 PWs)   bands (ev):

   -69.2014 -39.1203 -35.2894 -35.2622 -35.2622 -15.5075 -15.2187 -15.2187
    12.2344  14.5613  14.8885  16.5886  16.5886  17.0616  17.7588  19.0701
    19.0902  19.0902

          k = 0.0000 0.0000 0.4444 (  4805 PWs)   bands (ev):

   -69.2006 -39.1145 -35.2962 -35.2611 -35.2611 -15.5854 -15.2139 -15.2139
    13.4362  14.3574  15.4424  16.5971  16.5971  17.1343  17.2030  18.6546
    18.6546  18.6888

          k = 0.0000 0.1111 0.1111 (  4805 PWs)   bands (ev):

   -69.2032 -39.1339 -35.2709 -35.2675 -35.2647 -15.2797 -15.2708 -15.2300
    10.6595  14.1028  14.1346  16.5213  16.6077  16.8507  18.8367  19.0207
    20.2148  20.2231

          k = 0.0000 0.1111 0.2222 (  4791 PWs)   bands (ev):

   -69.2021 -39.1252 -35.2797 -35.2678 -35.2633 -15.3822 -15.2668 -15.2230
    11.3672  14.3909  14.4888  16.4128  16.5287  16.9762  18.5223  19.1068
    19.5191  19.6221

          k = 0.0000 0.1111 0.3333 (  4791 PWs)   bands (ev):

   -69.2010 -39.1154 -35.2906 -35.2672 -35.2617 -15.5013 -15.2579 -15.2151
    12.4071  14.6303  14.9694  16.3814  16.4518  16.9785  18.0221  18.7291
    19.1999  19.2933

          k = 0.0000 0.1111 0.4444 (  4805 PWs)   bands (ev):

   -69.2002 -39.1090 -35.2976 -35.2667 -35.2607 -15.5781 -15.2520 -15.2099
    13.5283  14.4160  15.4511  16.3729  16.4281  16.8601  17.6153  18.3323
    19.0625  19.1223

          k = 0.0000 0.2222 0.2222 (  4791 PWs)   bands (ev):

   -69.2011 -39.1148 -35.2838 -35.2757 -35.2620 -15.3802 -15.3597 -15.2149
    11.9851  14.5178  14.9059  16.1680  16.3907  16.9254  18.6823  18.9280
    19.0777  19.4449

          k = 0.0000 0.2222 0.3333 (  4797 PWs)   bands (ev):

   -69.1999 -39.1029 -35.2936 -35.2795 -35.2604 -15.4858 -15.3559 -15.2057
    12.8342  14.5596  15.4149  16.0316  16.3567  16.6323  18.4524  18.5681
    19.2727  19.5515

          k = 0.0000 0.2222 0.4444 (  4798 PWs)   bands (ev):

   -69.1992 -39.0951 -35.3011 -35.2808 -35.2595 -15.5595 -15.3476 -15.1997
    13.6334  14.3473  15.7687  16.0521  16.3091  16.5255  18.1622  18.3867
    19.4420  19.7736

          k = 0.0000 0.3333 0.3333 (  4773 PWs)   bands (ev):

   -69.1988 -39.0886 -35.2984 -35.2921 -35.2590 -15.4747 -15.4591 -15.1951
    13.2771  14.3425  15.7744  16.0819  16.1901  16.5975  18.4986  18.9572
    19.1305  20.0108

          k = 0.0000 0.3333 0.4444 (  4797 PWs)   bands (ev):

   -69.1980 -39.0793 -35.3051 -35.2968 -35.2581 -15.5382 -15.4549 -15.1881
    13.5432  14.1321  15.7016  15.8513  16.5380  17.2528  18.2580  19.0237
    19.3899  20.4028

          k = 0.0000 0.4444 0.4444 (  4768 PWs)   bands (ev):

   -69.1973 -39.0689 -35.3080 -35.3070 -35.2572 -15.5254 -15.5230 -15.1805
    13.4111  13.9880  15.5241  15.5747  17.4121  17.8951  18.6534  18.8990
    19.4003  20.7935

          k = 0.1111 0.1111 0.1111 (  4800 PWs)   bands (ev):

   -69.2028 -39.1302 -35.2704 -35.2704 -35.2659 -15.2796 -15.2682 -15.2682
    10.9028  14.2398  14.2398  16.4827  16.4827  16.9330  18.9194  18.9194
    19.6874  20.5512

          k = 0.1111 0.1111 0.2222 (  4798 PWs)   bands (ev):

   -69.2017 -39.1210 -35.2801 -35.2689 -35.2663 -15.3779 -15.2654 -15.2615
    11.5900  14.5392  14.5601  16.3347  16.3839  16.9341  18.6339  19.0556
    19.2935  19.7872

          k = 0.1111 0.1111 0.3333 (  4800 PWs)   bands (ev):

   -69.2006 -39.1105 -35.2914 -35.2671 -35.2664 -15.4954 -15.2546 -15.2538
    12.5887  14.7777  14.9749  16.2513  16.3096  16.7824  18.2366  18.8269
    19.0885  19.4698

          k = 0.1111 0.1111 0.4444 (  4800 PWs)   bands (ev):

   -69.1998 -39.1037 -35.2987 -35.2664 -35.2660 -15.5713 -15.2488 -15.2474
    13.6446  14.5218  15.4013  16.0884  16.4643  16.6558  17.9100  18.4427
    18.6929  19.7760

          k = 0.1111 0.2222 0.2222 (  4790 PWs)   bands (ev):

   -69.2007 -39.1103 -35.2831 -35.2765 -35.2665 -15.3748 -15.3570 -15.2547
    12.2043  14.6854  14.9561  16.1098  16.2318  16.6657  18.7810  19.0556
    19.1791  19.5657

          k = 0.1111 0.2222 0.3333 (  4796 PWs)   bands (ev):

   -69.1996 -39.0981 -35.2936 -35.2794 -35.2657 -15.4807 -15.3522 -15.2448
    13.0401  14.7477  15.3798  15.9601  16.1843  16.3784  18.6605  18.7093
    19.1640  19.8259

          k = 0.1111 0.2222 0.4444 (  4800 PWs)   bands (ev):

   -69.1988 -39.0901 -35.3015 -35.2803 -35.2650 -15.5539 -15.3441 -15.2383
    13.8090  14.5242  15.5937  15.8929  16.2208  16.4968  18.2711  18.5495
    18.9340  20.4575

          k = 0.1111 0.3333 0.3333 (  4787 PWs)   bands (ev):

   -69.1984 -39.0840 -35.2977 -35.2922 -35.2644 -15.4697 -15.4563 -15.2341
    13.4983  14.5254  15.7245  16.0003  16.0455  16.3676  18.5347  19.0229
    19.1246  20.3730

          k = 0.1111 0.3333 0.4444 (  4784 PWs)   bands (ev):

   -69.1977 -39.0747 -35.3048 -35.2962 -35.2635 -15.5342 -15.4517 -15.2270
    13.7459  14.3195  15.6447  15.7441  16.4459  17.0249  18.2491  18.9233
    19.2086  20.7259

          k = 0.1111 0.4444 0.4444 (  4772 PWs)   bands (ev):

   -69.1969 -39.0645 -35.3072 -35.3064 -35.2626 -15.5223 -15.5202 -15.2197
    13.6146  14.1773  15.4906  15.5316  17.3098  17.6413  18.3853  18.4778
    19.5192  20.9968

          k = 0.2222 0.2222 0.2222 (  4800 PWs)   bands (ev):

   -69.1997 -39.0989 -35.2815 -35.2815 -35.2751 -15.3656 -15.3499 -15.3499
    12.8008  15.0891  15.0891  15.9658  15.9658  16.1368  18.9759  18.9759
    19.7334  19.8018

          k = 0.2222 0.2222 0.3333 (  4793 PWs)   bands (ev):

   -69.1985 -39.0860 -35.2939 -35.2796 -35.2781 -15.4678 -15.3438 -15.3419
    13.5721  15.2106  15.2562  15.8008  15.8792  15.9764  18.8096  18.8385
    19.2746  20.2074

          k = 0.2222 0.2222 0.4444 (  4788 PWs)   bands (ev):

   -69.1978 -39.0775 -35.3027 -35.2794 -35.2784 -15.5400 -15.3366 -15.3335
    14.1885  14.8273  15.3912  15.6745  16.0217  16.3836  18.3152  18.6276
    19.0637  20.5596

          k = 0.2222 0.3333 0.3333 (  4791 PWs)   bands (ev):

   -69.1974 -39.0721 -35.2959 -35.2926 -35.2779 -15.4570 -15.4491 -15.3319
    14.1080  14.9634  15.6087  15.6570  15.8761  15.9301  18.5789  18.7299
    19.5875  20.3143

          k = 0.2222 0.3333 0.4444 (  4790 PWs)   bands (ev):

   -69.1967 -39.0630 -35.3041 -35.2947 -35.2772 -15.5241 -15.4436 -15.3247
    14.2951  14.7586  15.5186  15.5652  16.1327  16.5575  18.2059  18.5105
    19.6340  20.6969

          k = 0.2222 0.4444 0.4444 (  4769 PWs)   bands (ev):

   -69.1959 -39.0535 -35.3053 -35.3048 -35.2762 -15.5143 -15.5130 -15.3180
    14.1815  14.6484  15.4207  15.4504  16.8821  16.9026  18.0405  18.2422
    19.9148  21.0513

          k = 0.3333 0.3333 0.3333 (  4797 PWs)   bands (ev):

   -69.1963 -39.0585 -35.2938 -35.2938 -35.2925 -15.4434 -15.4409 -15.4409
    14.8409  15.1326  15.5031  15.5031  15.7489  15.7489  18.4425  18.4425
    20.2356  20.2356

          k = 0.3333 0.3333 0.4444 (  4783 PWs)   bands (ev):

   -69.1955 -39.0497 -35.3035 -35.2932 -35.2925 -15.5125 -15.4355 -15.4331
    14.8624  15.0704  15.4790  15.5727  15.7994  16.2222  18.0782  18.2968
    20.2290  20.7870

          k = 0.3333 0.4444 0.4444 (  4769 PWs)   bands (ev):

   -69.1948 -39.0409 -35.3031 -35.3030 -35.2917 -15.5051 -15.5049 -15.4282
    14.9324  15.1372  15.3878  15.4790  16.1953  16.2709  17.9126  18.1058
    20.5430  21.0947

          k = 0.4444 0.4444 0.4444 (  4758 PWs)   bands (ev):

   -69.1941 -39.0327 -35.3019 -35.3017 -35.3017 -15.4996 -15.4996 -15.4990
    15.2788  15.4658  15.4658  15.7971  15.7971  15.8050  17.8843  17.8843
    21.1210  21.1210

     the Fermi energy is    17.6493 ev

!    total energy              =    -448.58658530 Ry
     estimated scf accuracy    <          7.9E-09 Ry
     smearing contrib. (-TS)   =      -0.00008121 Ry
     internal energy E=F+TS    =    -448.58650409 Ry

     The total energy is F=E-TS. E is the sum of the following terms:
     one-electron contribution =    -151.35254773 Ry
     hartree contribution      =      91.62967965 Ry
     xc contribution           =     -52.88918621 Ry
     ewald contribution        =    -259.82070277 Ry
     one-center paw contrib.   =     -76.15374703 Ry

     convergence has been achieved in  26 iterations

     negative rho (up, down):  9.860E-04 0.000E+00

     Forces acting on atoms (cartesian axes, Ry/au):

     atom    1 type  1   force =     0.00000000    0.00000000    0.00000000
     atom    2 type  2   force =     0.00000000    0.00000000    0.00000000

     Total force =     0.000000     Total SCF correction =     0.000000


     Computing stress (Cartesian axis) and pressure


     negative rho (up, down):  9.860E-04 0.000E+00
          total   stress  (Ry/bohr**3)                   (kbar)     P=       31.96
   0.00021725   0.00000000   0.00000000           31.96        0.00        0.00
   0.00000000   0.00021725   0.00000000            0.00       31.96        0.00
   0.00000000   0.00000000   0.00021725            0.00        0.00       31.96


     Writing all to output data dir ./TiFe.save/ :
     XML data file, charge density, pseudopotentials, collected wavefunctions

     init_run     :      1.01s CPU      1.05s WALL (       1 calls)
     electrons    :     13.59s CPU     14.02s WALL (       1 calls)
     forces       :      0.11s CPU      0.11s WALL (       1 calls)
     stress       :      0.52s CPU      0.53s WALL (       1 calls)

     Called by init_run:
     wfcinit      :      0.17s CPU      0.18s WALL (       1 calls)
     potinit      :      0.15s CPU      0.16s WALL (       1 calls)
     hinit0       :      0.57s CPU      0.58s WALL (       1 calls)

     Called by electrons:
     c_bands      :      8.19s CPU      8.39s WALL (      26 calls)
     sum_band     :      2.94s CPU      3.00s WALL (      26 calls)
     v_of_rho     :      0.27s CPU      0.29s WALL (      27 calls)
     newd         :      1.26s CPU      1.28s WALL (      27 calls)
     PAW_pot      :      0.95s CPU      0.98s WALL (      27 calls)
     mix_rho      :      0.03s CPU      0.04s WALL (      26 calls)

     Called by c_bands:
     init_us_2    :      0.15s CPU      0.16s WALL (    1925 calls)
     cegterg      :      7.87s CPU      8.06s WALL (     910 calls)

     Called by *egterg:
     cdiaghg      :      0.84s CPU      0.86s WALL (    2934 calls)
     h_psi        :      6.37s CPU      6.54s WALL (    2969 calls)
     s_psi        :      0.10s CPU      0.11s WALL (    2969 calls)
     g_psi        :      0.02s CPU      0.02s WALL (    2024 calls)

     Called by h_psi:
     h_psi:calbec :      0.23s CPU      0.24s WALL (    2969 calls)
     vloc_psi     :      6.01s CPU      6.17s WALL (    2969 calls)
     add_vuspsi   :      0.11s CPU      0.11s WALL (    2969 calls)

     General routines
     calbec       :      0.35s CPU      0.36s WALL (    4474 calls)
     fft          :      0.68s CPU      0.70s WALL (     374 calls)
     ffts         :      0.11s CPU      0.11s WALL (      53 calls)
     fftw         :      6.45s CPU      6.62s WALL (   94046 calls)
     interpolate  :      0.12s CPU      0.12s WALL (      27 calls)

     Parallel routines

     PWSCF        :     15.49s CPU     17.39s WALL


   This run was terminated on:  10:53: 8  28Oct2025            

=------------------------------------------------------------------------------=
   JOB DONE.
=------------------------------------------------------------------------------=
Note: The following floating-point exceptions are signalling: IEEE_UNDERFLOW_FLAG IEEE_DENORMAL
Note: The following floating-point exceptions are signalling: IEEE_UNDERFLOW_FLAG IEEE_DENORMAL
Note: The following floating-point exceptions are signalling: IEEE_UNDERFLOW_FLAG IEEE_DENORMAL
Note: The following floating-point exceptions are signalling: IEEE_UNDERFLOW_FLAG IEEE_DENORMAL
Note: The following floating-point exceptions are signalling: IEEE_UNDERFLOW_FLAG IEEE_DENORMAL
Note: The following floating-point exceptions are signalling: IEEE_UNDERFLOW_FLAG IEEE_DENORMAL
Note: The following floating-point exceptions are signalling: IEEE_UNDERFLOW_FLAG IEEE_DENORMAL
Note: The following floating-point exceptions are signalling: IEEE_UNDERFLOW_FLAG IEEE_DENORMAL
Note: The following floating-point exceptions are signalling: IEEE_UNDERFLOW_FLAG IEEE_DENORMAL
Note: The following floating-point exceptions are signalling: IEEE_UNDERFLOW_FLAG IEEE_DENORMAL
Note: The following floating-point exceptions are signalling: IEEE_UNDERFLOW_FLAG IEEE_DENORMAL
Note: The following floating-point exceptions are signalling: IEEE_UNDERFLOW_FLAG IEEE_DENORMAL
Note: The following floating-point exceptions are signalling: IEEE_UNDERFLOW_FLAG IEEE_DENORMAL
Note: The following floating-point exceptions are signalling: IEEE_UNDERFLOW_FLAG IEEE_DENORMAL
Note: The following floating-point exceptions are signalling: IEEE_UNDERFLOW_FLAG IEEE_DENORMAL
Note: The following floating-point exceptions are signalling: IEEE_UNDERFLOW_FLAG IEEE_DENORMAL
