
     Program PWSCF v.7.4 starts on 28Oct2025 at 10:52:32 

     This program is part of the open-source Quantum ESPRESSO suite
     for quantum simulation of materials; please cite
         "P. Giannozzi et al., J. Phys.:Condens. Matter 21 395502 (2009);
         "P. Giannozzi et al., J. Phys.:Condens. Matter 29 465901 (2017);
         "P. Giannozzi et al., J. Chem. Phys. 152 154105 (2020);
          URL http://www.quantum-espresso.org", 
     in publications or presentations arising from this work. More details at
     http://www.quantum-espresso.org/quote

     Parallel version (MPI & OpenMP), running on      16 processor cores
     Number of MPI processes:                16
     Threads/MPI process:                     1

     MPI processes distributed on     1 nodes
     230705 MiB available memory on the printing compute node when the environment starts

     Reading input from TiFe_ecutrho_convergence/TiFe2_factor9.in

     Current dimensions of program PWSCF are:
     Max number of different atomic species (ntypx) = 10
     Max number of k-points (npk) =  40000
     Max angular momentum in pseudopotentials (lmaxx) =  4
     file Fe.pbe-spn-kjpaw_psl.0.2.1.UPF: wavefunction(s)  3D renormalized

     IMPORTANT: XC functional enforced from input :
     Exchange-correlation= PBE
                           (   1   4   3   4   0   0   0)
     Any further DFT definition will be discarded
     Please, verify this is what you really want

     Message from routine setup:
     using ibrav=0 with symmetry is DISCOURAGED, use correct ibrav instead

     R & G space division:  proc/nbgrp/npool/nimage =      16
     Subspace diagonalization in iterative solution of the eigenvalue problem:
     a serial algorithm will be used


     Parallelization info
     --------------------
     sticks:   dense  smooth     PW     G-vecs:    dense   smooth      PW
     Min         193      85     25                 8073     2399     375
     Max         194      86     26                 8076     2402     378
     Sum        3093    1369    401               129187    38401    6031

     Using Slab Decomposition



     bravais-lattice index     =            0
     lattice parameter (alat)  =       5.5533  a.u.
     unit-cell volume          =     171.2590 (a.u.)^3
     number of atoms/cell      =            2
     number of atomic types    =            2
     number of electrons       =        28.00
     number of Kohn-Sham states=           18
     kinetic-energy cutoff     =     140.0000  Ry
     charge density cutoff     =    1260.0000  Ry
     scf convergence threshold =      1.0E-08
     mixing beta               =       0.7000
     number of iterations used =            8  plain     mixing
     Exchange-correlation= PBE
                           (   1   4   3   4   0   0   0)

     celldm(1)=   5.553300  celldm(2)=   0.000000  celldm(3)=   0.000000
     celldm(4)=   0.000000  celldm(5)=   0.000000  celldm(6)=   0.000000

     crystal axes: (cart. coord. in units of alat)
               a(1) = (   1.000000   0.000000   0.000000 )  
               a(2) = (   0.000000   1.000000   0.000000 )  
               a(3) = (   0.000000   0.000000   1.000000 )  

     reciprocal axes: (cart. coord. in units 2 pi/alat)
               b(1) = (  1.000000  0.000000  0.000000 )  
               b(2) = (  0.000000  1.000000  0.000000 )  
               b(3) = (  0.000000  0.000000  1.000000 )  


     PseudoPot. # 1 for Fe read from file:
     ./Fe.pbe-spn-kjpaw_psl.0.2.1.UPF
     MD5 check sum: e86618425769142926afa95317d90200
     Pseudo is Projector augmented-wave + core cor, Zval = 16.0
     Generated using "atomic" code by A. Dal Corso  v.5.0.99 svn rev. 10869
     Shape of augmentation charge: PSQ
     Using radial grid of 1191 points,  6 beta functions with: 
                l(1) =   0
                l(2) =   0
                l(3) =   1
                l(4) =   1
                l(5) =   2
                l(6) =   2
     Q(r) pseudized with 0 coefficients 


     PseudoPot. # 2 for Ti read from file:
     ./Ti_pbe_v1.4.uspp.F.UPF
     MD5 check sum: 88a00a6731bd790ddea75d31a80cb452
     Pseudo is Ultrasoft + core correction, Zval = 12.0
     Generated by new atomic code, or converted to UPF format
     Using radial grid of  851 points,  6 beta functions with: 
                l(1) =   0
                l(2) =   0
                l(3) =   1
                l(4) =   1
                l(5) =   2
                l(6) =   2
     Q(r) pseudized with  6 coefficients,  rinner =    1.000   1.000   1.000
                                                       1.000   1.000

     atomic species   valence    mass     pseudopotential
     Fe               16.00    55.84500     Fe( 1.00)
     Ti               12.00    47.86700     Ti( 1.00)

     48 Sym. Ops., with inversion, found



   Cartesian axes

     site n.     atom                  positions (alat units)
         1        Fe     tau(   1) = (   0.5000000   0.5000000   0.5000000  )
         2        Ti     tau(   2) = (   0.0000000   0.0000000   0.0000000  )

     number of k points=    35  Marzari-Vanderbilt smearing, width (Ry)=  0.0050
                       cart. coord. in units 2pi/alat
        k(    1) = (   0.0000000   0.0000000   0.0000000), wk =   0.0027435
        k(    2) = (   0.0000000   0.0000000   0.1111111), wk =   0.0164609
        k(    3) = (   0.0000000   0.0000000   0.2222222), wk =   0.0164609
        k(    4) = (   0.0000000   0.0000000   0.3333333), wk =   0.0164609
        k(    5) = (   0.0000000   0.0000000   0.4444444), wk =   0.0164609
        k(    6) = (   0.0000000   0.1111111   0.1111111), wk =   0.0329218
        k(    7) = (   0.0000000   0.1111111   0.2222222), wk =   0.0658436
        k(    8) = (   0.0000000   0.1111111   0.3333333), wk =   0.0658436
        k(    9) = (   0.0000000   0.1111111   0.4444444), wk =   0.0658436
        k(   10) = (   0.0000000   0.2222222   0.2222222), wk =   0.0329218
        k(   11) = (   0.0000000   0.2222222   0.3333333), wk =   0.0658436
        k(   12) = (   0.0000000   0.2222222   0.4444444), wk =   0.0658436
        k(   13) = (   0.0000000   0.3333333   0.3333333), wk =   0.0329218
        k(   14) = (   0.0000000   0.3333333   0.4444444), wk =   0.0658436
        k(   15) = (   0.0000000   0.4444444   0.4444444), wk =   0.0329218
        k(   16) = (   0.1111111   0.1111111   0.1111111), wk =   0.0219479
        k(   17) = (   0.1111111   0.1111111   0.2222222), wk =   0.0658436
        k(   18) = (   0.1111111   0.1111111   0.3333333), wk =   0.0658436
        k(   19) = (   0.1111111   0.1111111   0.4444444), wk =   0.0658436
        k(   20) = (   0.1111111   0.2222222   0.2222222), wk =   0.0658436
        k(   21) = (   0.1111111   0.2222222   0.3333333), wk =   0.1316872
        k(   22) = (   0.1111111   0.2222222   0.4444444), wk =   0.1316872
        k(   23) = (   0.1111111   0.3333333   0.3333333), wk =   0.0658436
        k(   24) = (   0.1111111   0.3333333   0.4444444), wk =   0.1316872
        k(   25) = (   0.1111111   0.4444444   0.4444444), wk =   0.0658436
        k(   26) = (   0.2222222   0.2222222   0.2222222), wk =   0.0219479
        k(   27) = (   0.2222222   0.2222222   0.3333333), wk =   0.0658436
        k(   28) = (   0.2222222   0.2222222   0.4444444), wk =   0.0658436
        k(   29) = (   0.2222222   0.3333333   0.3333333), wk =   0.0658436
        k(   30) = (   0.2222222   0.3333333   0.4444444), wk =   0.1316872
        k(   31) = (   0.2222222   0.4444444   0.4444444), wk =   0.0658436
        k(   32) = (   0.3333333   0.3333333   0.3333333), wk =   0.0219479
        k(   33) = (   0.3333333   0.3333333   0.4444444), wk =   0.0658436
        k(   34) = (   0.3333333   0.4444444   0.4444444), wk =   0.0658436
        k(   35) = (   0.4444444   0.4444444   0.4444444), wk =   0.0219479

     Dense  grid:   129187 G-vectors     FFT dimensions: (  64,  64,  64)

     Smooth grid:    38401 G-vectors     FFT dimensions: (  45,  45,  45)

     Estimated max dynamical RAM per process >      38.27 MB

     Estimated total dynamical RAM >     612.24 MB

     Check: negative core charge=   -0.000002

     Initial potential from superposition of free atoms

     starting charge      26.9995, renormalised to      28.0000

     negative rho (up, down):  1.432E-03 0.000E+00
     Starting wfcs are   23 randomized atomic wfcs
     Checking if some PAW data can be deallocated... 

     total cpu time spent up to now is        1.0 secs

     per-process dynamical memory:   142.8 Mb

     Self-consistent Calculation

     iteration #  1     ecut=   140.00 Ry     beta= 0.70
     Davidson diagonalization with overlap
     ethr =  1.00E-02,  avg # of iterations =  2.1

     negative rho (up, down):  9.970E-05 0.000E+00

     total cpu time spent up to now is        1.5 secs

     WARNING: integrated charge=    28.00076701, expected=    28.00000000

     total energy              =    -434.87404272 Ry
     estimated scf accuracy    <      17.48317446 Ry

     iteration #  2     ecut=   140.00 Ry     beta= 0.70
     Davidson diagonalization with overlap
     ethr =  1.00E-02,  avg # of iterations =  6.1

     negative rho (up, down):  3.297E-05 0.000E+00

     total cpu time spent up to now is        2.3 secs

     WARNING: integrated charge=    28.00058514, expected=    28.00000000

     total energy              =    -448.52090668 Ry
     estimated scf accuracy    <      66.12513134 Ry

     iteration #  3     ecut=   140.00 Ry     beta= 0.70
     Davidson diagonalization with overlap
     ethr =  1.00E-02,  avg # of iterations =  3.1

     negative rho (up, down):  2.327E-04 0.000E+00

     total cpu time spent up to now is        3.0 secs

     WARNING: integrated charge=    28.00046676, expected=    28.00000000

     total energy              =    -448.59449453 Ry
     estimated scf accuracy    <      16.78587689 Ry

     iteration #  4     ecut=   140.00 Ry     beta= 0.70
     Davidson diagonalization with overlap
     ethr =  1.00E-02,  avg # of iterations =  2.2

     negative rho (up, down):  2.559E-04 0.000E+00

     total cpu time spent up to now is        3.5 secs

     WARNING: integrated charge=    28.00045383, expected=    28.00000000

     total energy              =    -449.11476161 Ry
     estimated scf accuracy    <       4.69949660 Ry

     iteration #  5     ecut=   140.00 Ry     beta= 0.70
     Davidson diagonalization with overlap
     ethr =  1.00E-02,  avg # of iterations =  1.0

     negative rho (up, down):  2.953E-04 0.000E+00

     total cpu time spent up to now is        3.9 secs

     WARNING: integrated charge=    28.00042310, expected=    28.00000000

     total energy              =    -449.11043649 Ry
     estimated scf accuracy    <       4.29775256 Ry

     iteration #  6     ecut=   140.00 Ry     beta= 0.70
     Davidson diagonalization with overlap
     ethr =  1.00E-02,  avg # of iterations =  1.1

     negative rho (up, down):  1.162E-03 0.000E+00

     total cpu time spent up to now is        4.4 secs

     WARNING: integrated charge=    28.00020503, expected=    28.00000000

     total energy              =    -447.87797729 Ry
     estimated scf accuracy    <       4.56762446 Ry

     iteration #  7     ecut=   140.00 Ry     beta= 0.70
     Davidson diagonalization with overlap
     ethr =  1.00E-02,  avg # of iterations =  3.4

     negative rho (up, down):  1.054E-03 0.000E+00

     total cpu time spent up to now is        4.9 secs

     WARNING: integrated charge=    28.00018668, expected=    28.00000000

     total energy              =    -448.60182000 Ry
     estimated scf accuracy    <       4.34261819 Ry

     iteration #  8     ecut=   140.00 Ry     beta= 0.70
     Davidson diagonalization with overlap
     ethr =  1.00E-02,  avg # of iterations =  1.0

     negative rho (up, down):  7.664E-04 0.000E+00

     total cpu time spent up to now is        5.3 secs

     WARNING: integrated charge=    28.00013874, expected=    28.00000000

     total energy              =    -448.38752159 Ry
     estimated scf accuracy    <       1.56379510 Ry

     iteration #  9     ecut=   140.00 Ry     beta= 0.70
     Davidson diagonalization with overlap
     ethr =  5.58E-03,  avg # of iterations =  1.9

     negative rho (up, down):  7.640E-04 0.000E+00

     total cpu time spent up to now is        5.8 secs

     WARNING: integrated charge=    28.00013489, expected=    28.00000000

     total energy              =    -448.62363557 Ry
     estimated scf accuracy    <       0.47558590 Ry

     iteration # 10     ecut=   140.00 Ry     beta= 0.70
     Davidson diagonalization with overlap
     ethr =  1.70E-03,  avg # of iterations =  1.2

     negative rho (up, down):  7.097E-04 0.000E+00

     total cpu time spent up to now is        6.2 secs

     WARNING: integrated charge=    28.00010000, expected=    28.00000000

     total energy              =    -448.67633303 Ry
     estimated scf accuracy    <       0.55887863 Ry

     iteration # 11     ecut=   140.00 Ry     beta= 0.70
     Davidson diagonalization with overlap
     ethr =  1.70E-03,  avg # of iterations =  1.2

     negative rho (up, down):  6.859E-04 0.000E+00

     total cpu time spent up to now is        6.7 secs

     WARNING: integrated charge=    28.00002552, expected=    28.00000000

     total energy              =    -448.66278519 Ry
     estimated scf accuracy    <       1.34304400 Ry

     iteration # 12     ecut=   140.00 Ry     beta= 0.70
     Davidson diagonalization with overlap
     ethr =  1.70E-03,  avg # of iterations =  1.0

     negative rho (up, down):  7.474E-04 0.000E+00

     total cpu time spent up to now is        7.1 secs

     WARNING: integrated charge=    28.00002332, expected=    28.00000000

     total energy              =    -448.62764876 Ry
     estimated scf accuracy    <       0.93568779 Ry

     iteration # 13     ecut=   140.00 Ry     beta= 0.70
     Davidson diagonalization with overlap
     ethr =  1.70E-03,  avg # of iterations =  1.0

     negative rho (up, down):  7.426E-04 0.000E+00

     total cpu time spent up to now is        7.6 secs

     WARNING: integrated charge=    27.99999262, expected=    28.00000000

     total energy              =    -448.62467825 Ry
     estimated scf accuracy    <       0.47745668 Ry

     iteration # 14     ecut=   140.00 Ry     beta= 0.70
     Davidson diagonalization with overlap
     ethr =  1.70E-03,  avg # of iterations =  1.0

     negative rho (up, down):  7.707E-04 0.000E+00

     total cpu time spent up to now is        8.0 secs

     WARNING: integrated charge=    27.99998879, expected=    28.00000000

     total energy              =    -448.63362520 Ry
     estimated scf accuracy    <       0.33069178 Ry

     iteration # 15     ecut=   140.00 Ry     beta= 0.70
     Davidson diagonalization with overlap
     ethr =  1.18E-03,  avg # of iterations =  1.0

     negative rho (up, down):  7.337E-04 0.000E+00

     total cpu time spent up to now is        8.5 secs

     WARNING: integrated charge=    27.99999008, expected=    28.00000000

     total energy              =    -448.63625053 Ry
     estimated scf accuracy    <       0.42057966 Ry

     iteration # 16     ecut=   140.00 Ry     beta= 0.70
     Davidson diagonalization with overlap
     ethr =  1.18E-03,  avg # of iterations =  1.0

     negative rho (up, down):  7.529E-04 0.000E+00

     total cpu time spent up to now is        8.9 secs

     WARNING: integrated charge=    27.99999305, expected=    28.00000000

     total energy              =    -448.64053185 Ry
     estimated scf accuracy    <       0.38138570 Ry

     iteration # 17     ecut=   140.00 Ry     beta= 0.70
     Davidson diagonalization with overlap
     ethr =  1.18E-03,  avg # of iterations =  1.0

     negative rho (up, down):  1.011E-03 0.000E+00

     total cpu time spent up to now is        9.4 secs

     WARNING: integrated charge=    27.99994850, expected=    28.00000000

     total energy              =    -448.62969133 Ry
     estimated scf accuracy    <       0.47502936 Ry

     iteration # 18     ecut=   140.00 Ry     beta= 0.70
     Davidson diagonalization with overlap
     ethr =  1.18E-03,  avg # of iterations =  1.1

     negative rho (up, down):  9.866E-04 0.000E+00

     total cpu time spent up to now is        9.8 secs

     WARNING: integrated charge=    28.00002299, expected=    28.00000000

     total energy              =    -448.55495044 Ry
     estimated scf accuracy    <       0.32954480 Ry

     iteration # 19     ecut=   140.00 Ry     beta= 0.70
     Davidson diagonalization with overlap
     ethr =  1.18E-03,  avg # of iterations =  2.0

     negative rho (up, down):  9.779E-04 0.000E+00

     total cpu time spent up to now is       10.3 secs

     WARNING: integrated charge=    27.99997813, expected=    28.00000000

     total energy              =    -448.58313206 Ry
     estimated scf accuracy    <       0.00226137 Ry

     iteration # 20     ecut=   140.00 Ry     beta= 0.70
     Davidson diagonalization with overlap
     ethr =  8.08E-06,  avg # of iterations =  6.8

     negative rho (up, down):  9.630E-04 0.000E+00

     total cpu time spent up to now is       11.1 secs

     WARNING: integrated charge=    27.99998947, expected=    28.00000000

     total energy              =    -448.58630562 Ry
     estimated scf accuracy    <       0.00232366 Ry

     iteration # 21     ecut=   140.00 Ry     beta= 0.70
     Davidson diagonalization with overlap
     ethr =  8.08E-06,  avg # of iterations =  1.9

     negative rho (up, down):  9.935E-04 0.000E+00

     total cpu time spent up to now is       11.5 secs

     WARNING: integrated charge=    27.99999676, expected=    28.00000000

     total energy              =    -448.58648181 Ry
     estimated scf accuracy    <       0.00038658 Ry

     iteration # 22     ecut=   140.00 Ry     beta= 0.70
     Davidson diagonalization with overlap
     ethr =  1.38E-06,  avg # of iterations =  2.8

     negative rho (up, down):  9.855E-04 0.000E+00

     total cpu time spent up to now is       12.1 secs

     total energy              =    -448.58655698 Ry
     estimated scf accuracy    <       0.00021871 Ry

     iteration # 23     ecut=   140.00 Ry     beta= 0.70
     Davidson diagonalization with overlap
     ethr =  7.81E-07,  avg # of iterations =  2.1

     negative rho (up, down):  9.909E-04 0.000E+00

     total cpu time spent up to now is       12.5 secs

     total energy              =    -448.58657496 Ry
     estimated scf accuracy    <       0.00003309 Ry

     iteration # 24     ecut=   140.00 Ry     beta= 0.70
     Davidson diagonalization with overlap
     ethr =  1.18E-07,  avg # of iterations =  4.1

     negative rho (up, down):  9.883E-04 0.000E+00

     total cpu time spent up to now is       13.1 secs

     total energy              =    -448.58658406 Ry
     estimated scf accuracy    <       0.00001496 Ry

     iteration # 25     ecut=   140.00 Ry     beta= 0.70
     Davidson diagonalization with overlap
     ethr =  5.34E-08,  avg # of iterations =  1.5

     negative rho (up, down):  9.878E-04 0.000E+00

     total cpu time spent up to now is       13.5 secs

     total energy              =    -448.58658588 Ry
     estimated scf accuracy    <       0.00000064 Ry

     iteration # 26     ecut=   140.00 Ry     beta= 0.70
     Davidson diagonalization with overlap
     ethr =  2.27E-09,  avg # of iterations =  4.3

     negative rho (up, down):  9.886E-04 0.000E+00

     total cpu time spent up to now is       14.2 secs

     total energy              =    -448.58658589 Ry
     estimated scf accuracy    <       0.00000111 Ry

     iteration # 27     ecut=   140.00 Ry     beta= 0.70
     Davidson diagonalization with overlap
     ethr =  2.27E-09,  avg # of iterations =  2.3

     negative rho (up, down):  9.886E-04 0.000E+00

     total cpu time spent up to now is       14.6 secs

     total energy              =    -448.58658600 Ry
     estimated scf accuracy    <       0.00000002 Ry

     iteration # 28     ecut=   140.00 Ry     beta= 0.70
     Davidson diagonalization with overlap
     ethr =  6.13E-11,  avg # of iterations =  5.3

     negative rho (up, down):  9.886E-04 0.000E+00

     total cpu time spent up to now is       15.3 secs

     total energy              =    -448.58658602 Ry
     estimated scf accuracy    <       0.00000002 Ry

     iteration # 29     ecut=   140.00 Ry     beta= 0.70
     Davidson diagonalization with overlap
     ethr =  5.76E-11,  avg # of iterations =  1.4

     negative rho (up, down):  9.885E-04 0.000E+00

     total cpu time spent up to now is       15.8 secs

     End of self-consistent calculation

          k = 0.0000 0.0000 0.0000 (  4801 PWs)   bands (ev):

   -69.2043 -39.1409 -35.2661 -35.2661 -35.2661 -15.2357 -15.2357 -15.2357
    10.1529  13.8668  13.8668  16.6614  16.6614  16.6614  19.0044  19.0044
    20.9449  20.9449

          k = 0.0000 0.0000 0.1111 (  4821 PWs)   bands (ev):

   -69.2038 -39.1377 -35.2698 -35.2656 -35.2656 -15.2788 -15.2331 -15.2331
    10.4101  13.9907  13.9986  16.6429  16.6429  16.7175  18.8473  19.0620
    20.5824  20.5824

          k = 0.0000 0.0000 0.2222 (  4801 PWs)   bands (ev):

   -69.2028 -39.1298 -35.2792 -35.2641 -35.2641 -15.3869 -15.2266 -15.2266
    11.1437  14.3128  14.3486  16.6063  16.6063  16.8689  18.4023  19.1657
    19.8173  19.8173

          k = 0.0000 0.0000 0.3333 (  4789 PWs)   bands (ev):

   -69.2016 -39.1208 -35.2897 -35.2625 -35.2625 -15.5079 -15.2192 -15.2192
    12.2344  14.5612  14.8884  16.5884  16.5884  17.0614  17.7585  19.0699
    19.0899  19.0899

          k = 0.0000 0.0000 0.4444 (  4805 PWs)   bands (ev):

   -69.2009 -39.1149 -35.2965 -35.2614 -35.2614 -15.5858 -15.2143 -15.2143
    13.4362  14.3573  15.4423  16.5970  16.5970  17.1341  17.2029  18.6543
    18.6543  18.6886

          k = 0.0000 0.1111 0.1111 (  4805 PWs)   bands (ev):

   -69.2034 -39.1343 -35.2712 -35.2678 -35.2650 -15.2801 -15.2712 -15.2304
    10.6595  14.1026  14.1344  16.5211  16.6075  16.8505  18.8364  19.0204
    20.2145  20.2228

          k = 0.0000 0.1111 0.2222 (  4791 PWs)   bands (ev):

   -69.2024 -39.1257 -35.2800 -35.2680 -35.2636 -15.3826 -15.2672 -15.2234
    11.3672  14.3907  14.4886  16.4126  16.5286  16.9760  18.5220  19.1065
    19.5188  19.6218

          k = 0.0000 0.1111 0.3333 (  4791 PWs)   bands (ev):

   -69.2012 -39.1158 -35.2908 -35.2674 -35.2620 -15.5017 -15.2583 -15.2155
    12.4071  14.6302  14.9693  16.3812  16.4516  16.9783  18.0218  18.7289
    19.1996  19.2930

          k = 0.0000 0.1111 0.4444 (  4805 PWs)   bands (ev):

   -69.2005 -39.1094 -35.2979 -35.2670 -35.2609 -15.5785 -15.2524 -15.2103
    13.5282  14.4159  15.4510  16.3728  16.4279  16.8599  17.6151  18.3321
    19.0622  19.1221

          k = 0.0000 0.2222 0.2222 (  4791 PWs)   bands (ev):

   -69.2014 -39.1152 -35.2840 -35.2760 -35.2622 -15.3806 -15.3601 -15.2153
    11.9851  14.5177  14.9057  16.1679  16.3906  16.9253  18.6820  18.9278
    19.0774  19.4446

          k = 0.0000 0.2222 0.3333 (  4797 PWs)   bands (ev):

   -69.2002 -39.1033 -35.2938 -35.2797 -35.2607 -15.4862 -15.3563 -15.2061
    12.8342  14.5595  15.4148  16.0315  16.3565  16.6321  18.4522  18.5679
    19.2724  19.5512

          k = 0.0000 0.2222 0.4444 (  4798 PWs)   bands (ev):

   -69.1995 -39.0956 -35.3013 -35.2811 -35.2597 -15.5599 -15.3480 -15.2001
    13.6333  14.3472  15.7686  16.0519  16.3089  16.5253  18.1620  18.3865
    19.4419  19.7733

          k = 0.0000 0.3333 0.3333 (  4773 PWs)   bands (ev):

   -69.1991 -39.0891 -35.2987 -35.2924 -35.2593 -15.4751 -15.4595 -15.1955
    13.2771  14.3424  15.7743  16.0817  16.1899  16.5974  18.4983  18.9570
    19.1303  20.0105

          k = 0.0000 0.3333 0.4444 (  4797 PWs)   bands (ev):

   -69.1983 -39.0797 -35.3054 -35.2971 -35.2583 -15.5386 -15.4553 -15.1885
    13.5431  14.1320  15.7014  15.8511  16.5379  17.2527  18.2578  19.0235
    19.3897  20.4024

          k = 0.0000 0.4444 0.4444 (  4768 PWs)   bands (ev):

   -69.1976 -39.0693 -35.3082 -35.3073 -35.2574 -15.5258 -15.5234 -15.1809
    13.4110  13.9879  15.5239  15.5746  17.4119  17.8949  18.6533  18.8990
    19.4000  20.7933

          k = 0.1111 0.1111 0.1111 (  4800 PWs)   bands (ev):

   -69.2030 -39.1307 -35.2706 -35.2706 -35.2662 -15.2800 -15.2686 -15.2686
    10.9028  14.2397  14.2397  16.4825  16.4825  16.9328  18.9191  18.9191
    19.6871  20.5509

          k = 0.1111 0.1111 0.2222 (  4798 PWs)   bands (ev):

   -69.2020 -39.1214 -35.2803 -35.2691 -35.2665 -15.3783 -15.2658 -15.2619
    11.5900  14.5390  14.5600  16.3345  16.3837  16.9339  18.6336  19.0553
    19.2932  19.7869

          k = 0.1111 0.1111 0.3333 (  4800 PWs)   bands (ev):

   -69.2008 -39.1110 -35.2916 -35.2674 -35.2666 -15.4958 -15.2550 -15.2542
    12.5887  14.7776  14.9748  16.2511  16.3095  16.7822  18.2363  18.8267
    19.0882  19.4695

          k = 0.1111 0.1111 0.4444 (  4800 PWs)   bands (ev):

   -69.2001 -39.1041 -35.2990 -35.2667 -35.2663 -15.5717 -15.2492 -15.2479
    13.6445  14.5217  15.4012  16.0882  16.4641  16.6557  17.9097  18.4425
    18.6926  19.7757

          k = 0.1111 0.2222 0.2222 (  4790 PWs)   bands (ev):

   -69.2010 -39.1107 -35.2834 -35.2768 -35.2668 -15.3752 -15.3574 -15.2551
    12.2043  14.6853  14.9560  16.1096  16.2316  16.6656  18.7807  19.0553
    19.1788  19.5654

          k = 0.1111 0.2222 0.3333 (  4796 PWs)   bands (ev):

   -69.1998 -39.0985 -35.2939 -35.2796 -35.2659 -15.4811 -15.3526 -15.2452
    13.0401  14.7476  15.3797  15.9600  16.1842  16.3783  18.6602  18.7091
    19.1638  19.8256

          k = 0.1111 0.2222 0.4444 (  4800 PWs)   bands (ev):

   -69.1991 -39.0906 -35.3018 -35.2806 -35.2652 -15.5543 -15.3445 -15.2387
    13.8089  14.5241  15.5936  15.8928  16.2207  16.4967  18.2709  18.5492
    18.9338  20.4572

          k = 0.1111 0.3333 0.3333 (  4787 PWs)   bands (ev):

   -69.1987 -39.0844 -35.2980 -35.2925 -35.2646 -15.4701 -15.4567 -15.2345
    13.4983  14.5253  15.7243  16.0001  16.0454  16.3674  18.5345  19.0227
    19.1244  20.3727

          k = 0.1111 0.3333 0.4444 (  4784 PWs)   bands (ev):

   -69.1979 -39.0751 -35.3051 -35.2965 -35.2638 -15.5346 -15.4521 -15.2275
    13.7459  14.3194  15.6445  15.7439  16.4458  17.0248  18.2489  18.9231
    19.2084  20.7256

          k = 0.1111 0.4444 0.4444 (  4772 PWs)   bands (ev):

   -69.1972 -39.0650 -35.3075 -35.3066 -35.2628 -15.5227 -15.5206 -15.2201
    13.6145  14.1772  15.4904  15.5314  17.3096  17.6412  18.3851  18.4776
    19.5189  20.9964

          k = 0.2222 0.2222 0.2222 (  4800 PWs)   bands (ev):

   -69.2000 -39.0994 -35.2818 -35.2818 -35.2754 -15.3660 -15.3503 -15.3503
    12.8008  15.0890  15.0890  15.9656  15.9656  16.1367  18.9756  18.9756
    19.7332  19.8015

          k = 0.2222 0.2222 0.3333 (  4793 PWs)   bands (ev):

   -69.1988 -39.0864 -35.2942 -35.2799 -35.2783 -15.4682 -15.3442 -15.3423
    13.5720  15.2105  15.2561  15.8007  15.8791  15.9763  18.8094  18.8383
    19.2743  20.2071

          k = 0.2222 0.2222 0.4444 (  4788 PWs)   bands (ev):

   -69.1981 -39.0779 -35.3030 -35.2796 -35.2787 -15.5404 -15.3370 -15.3339
    14.1884  14.8272  15.3911  15.6743  16.0216  16.3835  18.3150  18.6273
    19.0634  20.5593

          k = 0.2222 0.3333 0.3333 (  4791 PWs)   bands (ev):

   -69.1977 -39.0725 -35.2962 -35.2929 -35.2782 -15.4574 -15.4495 -15.3323
    14.1080  14.9632  15.6085  15.6569  15.8759  15.9300  18.5787  18.7296
    19.5872  20.3140

          k = 0.2222 0.3333 0.4444 (  4790 PWs)   bands (ev):

   -69.1969 -39.0634 -35.3044 -35.2950 -35.2775 -15.5245 -15.4440 -15.3251
    14.2950  14.7585  15.5184  15.5651  16.1326  16.5574  18.2057  18.5102
    19.6337  20.6966

          k = 0.2222 0.4444 0.4444 (  4769 PWs)   bands (ev):

   -69.1962 -39.0539 -35.3056 -35.3050 -35.2764 -15.5147 -15.5134 -15.3184
    14.1814  14.6482  15.4205  15.4502  16.8820  16.9025  18.0403  18.2420
    19.9145  21.0510

          k = 0.3333 0.3333 0.3333 (  4797 PWs)   bands (ev):

   -69.1965 -39.0590 -35.2941 -35.2941 -35.2928 -15.4438 -15.4413 -15.4413
    14.8408  15.1325  15.5030  15.5030  15.7487  15.7487  18.4422  18.4422
    20.2353  20.2353

          k = 0.3333 0.3333 0.4444 (  4783 PWs)   bands (ev):

   -69.1958 -39.0501 -35.3037 -35.2935 -35.2927 -15.5129 -15.4359 -15.4335
    14.8623  15.0702  15.4789  15.5726  15.7993  16.2221  18.0780  18.2966
    20.2287  20.7866

          k = 0.3333 0.4444 0.4444 (  4769 PWs)   bands (ev):

   -69.1951 -39.0414 -35.3034 -35.3032 -35.2919 -15.5055 -15.5053 -15.4286
    14.9323  15.1370  15.3876  15.4789  16.1952  16.2708  17.9124  18.1056
    20.5427  21.0943

          k = 0.4444 0.4444 0.4444 (  4758 PWs)   bands (ev):

   -69.1943 -39.0331 -35.3021 -35.3019 -35.3019 -15.4999 -15.4999 -15.4994
    15.2786  15.4656  15.4656  15.7969  15.7969  15.8049  17.8841  17.8841
    21.1207  21.1207

     the Fermi energy is    17.6491 ev

!    total energy              =    -448.58658602 Ry
     estimated scf accuracy    <          2.4E-09 Ry
     smearing contrib. (-TS)   =      -0.00008112 Ry
     internal energy E=F+TS    =    -448.58650490 Ry

     The total energy is F=E-TS. E is the sum of the following terms:
     one-electron contribution =    -151.35329370 Ry
     hartree contribution      =      91.63050328 Ry
     xc contribution           =     -52.88926518 Ry
     ewald contribution        =    -259.82070277 Ry
     one-center paw contrib.   =     -76.15374653 Ry

     convergence has been achieved in  29 iterations

     negative rho (up, down):  9.885E-04 0.000E+00

     Forces acting on atoms (cartesian axes, Ry/au):

     atom    1 type  1   force =     0.00000000    0.00000000    0.00000000
     atom    2 type  2   force =     0.00000000    0.00000000    0.00000000

     Total force =     0.000000     Total SCF correction =     0.000000


     Computing stress (Cartesian axis) and pressure


     negative rho (up, down):  9.885E-04 0.000E+00
          total   stress  (Ry/bohr**3)                   (kbar)     P=       31.95
   0.00021720   0.00000000   0.00000000           31.95        0.00        0.00
   0.00000000   0.00021720   0.00000000            0.00       31.95        0.00
   0.00000000   0.00000000   0.00021720            0.00        0.00       31.95


     Writing all to output data dir ./TiFe.save/ :
     XML data file, charge density, pseudopotentials, collected wavefunctions

     init_run     :      0.71s CPU      0.74s WALL (       1 calls)
     electrons    :     14.45s CPU     14.86s WALL (       1 calls)
     forces       :      0.09s CPU      0.09s WALL (       1 calls)
     stress       :      0.45s CPU      0.46s WALL (       1 calls)

     Called by init_run:
     wfcinit      :      0.16s CPU      0.17s WALL (       1 calls)
     potinit      :      0.15s CPU      0.16s WALL (       1 calls)
     hinit0       :      0.30s CPU      0.31s WALL (       1 calls)

     Called by electrons:
     c_bands      :      9.06s CPU      9.28s WALL (      29 calls)
     sum_band     :      3.03s CPU      3.08s WALL (      29 calls)
     v_of_rho     :      0.20s CPU      0.21s WALL (      30 calls)
     newd         :      1.13s CPU      1.15s WALL (      30 calls)
     PAW_pot      :      1.04s CPU      1.07s WALL (      30 calls)
     mix_rho      :      0.03s CPU      0.04s WALL (      29 calls)

     Called by c_bands:
     init_us_2    :      0.18s CPU      0.19s WALL (    2135 calls)
     cegterg      :      8.69s CPU      8.89s WALL (    1015 calls)

     Called by *egterg:
     cdiaghg      :      0.97s CPU      0.99s WALL (    3325 calls)
     h_psi        :      6.90s CPU      7.07s WALL (    3360 calls)
     s_psi        :      0.12s CPU      0.12s WALL (    3360 calls)
     g_psi        :      0.03s CPU      0.03s WALL (    2310 calls)

     Called by h_psi:
     h_psi:calbec :      0.27s CPU      0.27s WALL (    3360 calls)
     vloc_psi     :      6.49s CPU      6.65s WALL (    3360 calls)
     add_vuspsi   :      0.12s CPU      0.13s WALL (    3360 calls)

     General routines
     calbec       :      0.40s CPU      0.40s WALL (    4970 calls)
     fft          :      0.37s CPU      0.38s WALL (     413 calls)
     ffts         :      0.11s CPU      0.11s WALL (      59 calls)
     fftw         :      7.01s CPU      7.18s WALL (  107126 calls)
     interpolate  :      0.12s CPU      0.12s WALL (      30 calls)

     Parallel routines

     PWSCF        :     15.99s CPU     17.87s WALL


   This run was terminated on:  10:52:50  28Oct2025            

=------------------------------------------------------------------------------=
   JOB DONE.
=------------------------------------------------------------------------------=
Note: The following floating-point exceptions are signalling: IEEE_UNDERFLOW_FLAG IEEE_DENORMAL
Note: The following floating-point exceptions are signalling: IEEE_UNDERFLOW_FLAG IEEE_DENORMAL
Note: The following floating-point exceptions are signalling: IEEE_UNDERFLOW_FLAG IEEE_DENORMAL
Note: The following floating-point exceptions are signalling: IEEE_UNDERFLOW_FLAG IEEE_DENORMAL
Note: The following floating-point exceptions are signalling: IEEE_UNDERFLOW_FLAG IEEE_DENORMAL
Note: The following floating-point exceptions are signalling: IEEE_UNDERFLOW_FLAG IEEE_DENORMAL
Note: The following floating-point exceptions are signalling: IEEE_UNDERFLOW_FLAG IEEE_DENORMAL
Note: The following floating-point exceptions are signalling: IEEE_UNDERFLOW_FLAG IEEE_DENORMAL
Note: The following floating-point exceptions are signalling: IEEE_UNDERFLOW_FLAG IEEE_DENORMAL
Note: The following floating-point exceptions are signalling: IEEE_UNDERFLOW_FLAG IEEE_DENORMAL
Note: The following floating-point exceptions are signalling: IEEE_UNDERFLOW_FLAG IEEE_DENORMAL
Note: The following floating-point exceptions are signalling: IEEE_UNDERFLOW_FLAG IEEE_DENORMAL
Note: The following floating-point exceptions are signalling: IEEE_UNDERFLOW_FLAG IEEE_DENORMAL
Note: The following floating-point exceptions are signalling: IEEE_UNDERFLOW_FLAG IEEE_DENORMAL
Note: The following floating-point exceptions are signalling: IEEE_UNDERFLOW_FLAG IEEE_DENORMAL
Note: The following floating-point exceptions are signalling: IEEE_UNDERFLOW_FLAG IEEE_DENORMAL
