
     Program PWSCF v.7.4 starts on 28Oct2025 at 10:51: 0 

     This program is part of the open-source Quantum ESPRESSO suite
     for quantum simulation of materials; please cite
         "P. Giannozzi et al., J. Phys.:Condens. Matter 21 395502 (2009);
         "P. Giannozzi et al., J. Phys.:Condens. Matter 29 465901 (2017);
         "P. Giannozzi et al., J. Chem. Phys. 152 154105 (2020);
          URL http://www.quantum-espresso.org", 
     in publications or presentations arising from this work. More details at
     http://www.quantum-espresso.org/quote

     Parallel version (MPI & OpenMP), running on      16 processor cores
     Number of MPI processes:                16
     Threads/MPI process:                     1

     MPI processes distributed on     1 nodes
     230475 MiB available memory on the printing compute node when the environment starts

     Reading input from TiFe_ecutrho_convergence/TiFe2_factor2.in

     Current dimensions of program PWSCF are:
     Max number of different atomic species (ntypx) = 10
     Max number of k-points (npk) =  40000
     Max angular momentum in pseudopotentials (lmaxx) =  4
     file Fe.pbe-spn-kjpaw_psl.0.2.1.UPF: wavefunction(s)  3D renormalized

     IMPORTANT: XC functional enforced from input :
     Exchange-correlation= PBE
                           (   1   4   3   4   0   0   0)
     Any further DFT definition will be discarded
     Please, verify this is what you really want

     Message from routine set_cutoff:
     ecutrho < 4*ecutwfc, are you sure?
     Message from routine setup:
     using ibrav=0 with symmetry is DISCOURAGED, use correct ibrav instead

     K-points division:     npool     =       2
     R & G space division:  proc/nbgrp/npool/nimage =       8
     Subspace diagonalization in iterative solution of the eigenvalue problem:
     a serial algorithm will be used


     Parallelization info
     --------------------
     sticks:   dense  smooth     PW     G-vecs:    dense   smooth      PW
     Min          84      84     50                 1689     1689     752
     Max          87      87     51                 1691     1691     755
     Sum         681     681    401                13517    13517    6031

     Using Slab Decomposition



     bravais-lattice index     =            0
     lattice parameter (alat)  =       5.5533  a.u.
     unit-cell volume          =     171.2590 (a.u.)^3
     number of atoms/cell      =            2
     number of atomic types    =            2
     number of electrons       =        28.00
     number of Kohn-Sham states=           18
     kinetic-energy cutoff     =     140.0000  Ry
     charge density cutoff     =     280.0000  Ry
     scf convergence threshold =      1.0E-08
     mixing beta               =       0.7000
     number of iterations used =            8  plain     mixing
     Exchange-correlation= PBE
                           (   1   4   3   4   0   0   0)

     celldm(1)=   5.553300  celldm(2)=   0.000000  celldm(3)=   0.000000
     celldm(4)=   0.000000  celldm(5)=   0.000000  celldm(6)=   0.000000

     crystal axes: (cart. coord. in units of alat)
               a(1) = (   1.000000   0.000000   0.000000 )  
               a(2) = (   0.000000   1.000000   0.000000 )  
               a(3) = (   0.000000   0.000000   1.000000 )  

     reciprocal axes: (cart. coord. in units 2 pi/alat)
               b(1) = (  1.000000  0.000000  0.000000 )  
               b(2) = (  0.000000  1.000000  0.000000 )  
               b(3) = (  0.000000  0.000000  1.000000 )  


     PseudoPot. # 1 for Fe read from file:
     ./Fe.pbe-spn-kjpaw_psl.0.2.1.UPF
     MD5 check sum: e86618425769142926afa95317d90200
     Pseudo is Projector augmented-wave + core cor, Zval = 16.0
     Generated using "atomic" code by A. Dal Corso  v.5.0.99 svn rev. 10869
     Shape of augmentation charge: PSQ
     Using radial grid of 1191 points,  6 beta functions with: 
                l(1) =   0
                l(2) =   0
                l(3) =   1
                l(4) =   1
                l(5) =   2
                l(6) =   2
     Q(r) pseudized with 0 coefficients 


     PseudoPot. # 2 for Ti read from file:
     ./Ti_pbe_v1.4.uspp.F.UPF
     MD5 check sum: 88a00a6731bd790ddea75d31a80cb452
     Pseudo is Ultrasoft + core correction, Zval = 12.0
     Generated by new atomic code, or converted to UPF format
     Using radial grid of  851 points,  6 beta functions with: 
                l(1) =   0
                l(2) =   0
                l(3) =   1
                l(4) =   1
                l(5) =   2
                l(6) =   2
     Q(r) pseudized with  6 coefficients,  rinner =    1.000   1.000   1.000
                                                       1.000   1.000

     atomic species   valence    mass     pseudopotential
     Fe               16.00    55.84500     Fe( 1.00)
     Ti               12.00    47.86700     Ti( 1.00)

     48 Sym. Ops., with inversion, found



   Cartesian axes

     site n.     atom                  positions (alat units)
         1        Fe     tau(   1) = (   0.5000000   0.5000000   0.5000000  )
         2        Ti     tau(   2) = (   0.0000000   0.0000000   0.0000000  )

     number of k points=    35  Marzari-Vanderbilt smearing, width (Ry)=  0.0050
                       cart. coord. in units 2pi/alat
        k(    1) = (   0.0000000   0.0000000   0.0000000), wk =   0.0027435
        k(    2) = (   0.0000000   0.0000000   0.1111111), wk =   0.0164609
        k(    3) = (   0.0000000   0.0000000   0.2222222), wk =   0.0164609
        k(    4) = (   0.0000000   0.0000000   0.3333333), wk =   0.0164609
        k(    5) = (   0.0000000   0.0000000   0.4444444), wk =   0.0164609
        k(    6) = (   0.0000000   0.1111111   0.1111111), wk =   0.0329218
        k(    7) = (   0.0000000   0.1111111   0.2222222), wk =   0.0658436
        k(    8) = (   0.0000000   0.1111111   0.3333333), wk =   0.0658436
        k(    9) = (   0.0000000   0.1111111   0.4444444), wk =   0.0658436
        k(   10) = (   0.0000000   0.2222222   0.2222222), wk =   0.0329218
        k(   11) = (   0.0000000   0.2222222   0.3333333), wk =   0.0658436
        k(   12) = (   0.0000000   0.2222222   0.4444444), wk =   0.0658436
        k(   13) = (   0.0000000   0.3333333   0.3333333), wk =   0.0329218
        k(   14) = (   0.0000000   0.3333333   0.4444444), wk =   0.0658436
        k(   15) = (   0.0000000   0.4444444   0.4444444), wk =   0.0329218
        k(   16) = (   0.1111111   0.1111111   0.1111111), wk =   0.0219479
        k(   17) = (   0.1111111   0.1111111   0.2222222), wk =   0.0658436
        k(   18) = (   0.1111111   0.1111111   0.3333333), wk =   0.0658436
        k(   19) = (   0.1111111   0.1111111   0.4444444), wk =   0.0658436
        k(   20) = (   0.1111111   0.2222222   0.2222222), wk =   0.0658436
        k(   21) = (   0.1111111   0.2222222   0.3333333), wk =   0.1316872
        k(   22) = (   0.1111111   0.2222222   0.4444444), wk =   0.1316872
        k(   23) = (   0.1111111   0.3333333   0.3333333), wk =   0.0658436
        k(   24) = (   0.1111111   0.3333333   0.4444444), wk =   0.1316872
        k(   25) = (   0.1111111   0.4444444   0.4444444), wk =   0.0658436
        k(   26) = (   0.2222222   0.2222222   0.2222222), wk =   0.0219479
        k(   27) = (   0.2222222   0.2222222   0.3333333), wk =   0.0658436
        k(   28) = (   0.2222222   0.2222222   0.4444444), wk =   0.0658436
        k(   29) = (   0.2222222   0.3333333   0.3333333), wk =   0.0658436
        k(   30) = (   0.2222222   0.3333333   0.4444444), wk =   0.1316872
        k(   31) = (   0.2222222   0.4444444   0.4444444), wk =   0.0658436
        k(   32) = (   0.3333333   0.3333333   0.3333333), wk =   0.0219479
        k(   33) = (   0.3333333   0.3333333   0.4444444), wk =   0.0658436
        k(   34) = (   0.3333333   0.4444444   0.4444444), wk =   0.0658436
        k(   35) = (   0.4444444   0.4444444   0.4444444), wk =   0.0219479

     Dense  grid:    13517 G-vectors     FFT dimensions: (  30,  30,  30)

     Estimated max dynamical RAM per process >       9.73 MB

     Estimated total dynamical RAM >     152.41 MB

     Check: negative core charge=   -0.000287

     Initial potential from superposition of free atoms

     starting charge      26.9995, renormalised to      28.0000

     negative rho (up, down):  1.470E-03 0.000E+00
     Starting wfcs are   23 randomized atomic wfcs
     Checking if some PAW data can be deallocated... 

     total cpu time spent up to now is        0.6 secs

     per-process dynamical memory:   117.2 Mb

     Self-consistent Calculation

     iteration #  1     ecut=   140.00 Ry     beta= 0.70
     Davidson diagonalization with overlap
     ethr =  1.00E-02,  avg # of iterations =  2.1

     negative rho (up, down):  8.786E-04 0.000E+00

     total cpu time spent up to now is        0.8 secs

     WARNING: integrated charge=    27.99716750, expected=    28.00000000

     total energy              =    -434.88760505 Ry
     estimated scf accuracy    <      17.47806701 Ry

     iteration #  2     ecut=   140.00 Ry     beta= 0.70
     Davidson diagonalization with overlap
     ethr =  1.00E-02,  avg # of iterations =  6.1

     negative rho (up, down):  3.397E-04 0.000E+00

     total cpu time spent up to now is        1.1 secs

     WARNING: integrated charge=    27.99783949, expected=    28.00000000

     total energy              =    -448.54827756 Ry
     estimated scf accuracy    <      65.99573310 Ry

     iteration #  3     ecut=   140.00 Ry     beta= 0.70
     Davidson diagonalization with overlap
     ethr =  1.00E-02,  avg # of iterations =  3.1

     negative rho (up, down):  7.183E-04 0.000E+00

     total cpu time spent up to now is        1.4 secs

     WARNING: integrated charge=    27.99827680, expected=    28.00000000

     total energy              =    -448.59155191 Ry
     estimated scf accuracy    <      16.79596503 Ry

     iteration #  4     ecut=   140.00 Ry     beta= 0.70
     Davidson diagonalization with overlap
     ethr =  1.00E-02,  avg # of iterations =  2.1

     negative rho (up, down):  7.506E-04 0.000E+00

     total cpu time spent up to now is        1.6 secs

     WARNING: integrated charge=    27.99866086, expected=    28.00000000

     total energy              =    -449.10847243 Ry
     estimated scf accuracy    <       4.69075710 Ry

     iteration #  5     ecut=   140.00 Ry     beta= 0.70
     Davidson diagonalization with overlap
     ethr =  1.00E-02,  avg # of iterations =  1.0

     negative rho (up, down):  7.900E-04 0.000E+00

     total cpu time spent up to now is        1.8 secs

     WARNING: integrated charge=    27.99486021, expected=    28.00000000

     total energy              =    -449.11919979 Ry
     estimated scf accuracy    <       4.28882343 Ry

     iteration #  6     ecut=   140.00 Ry     beta= 0.70
     Davidson diagonalization with overlap
     ethr =  1.00E-02,  avg # of iterations =  1.1

     negative rho (up, down):  1.312E-03 0.000E+00

     total cpu time spent up to now is        1.9 secs

     WARNING: integrated charge=    27.98471246, expected=    28.00000000

     total energy              =    -447.92028679 Ry
     estimated scf accuracy    <       4.46749912 Ry

     iteration #  7     ecut=   140.00 Ry     beta= 0.70
     Davidson diagonalization with overlap
     ethr =  1.00E-02,  avg # of iterations =  3.4

     negative rho (up, down):  1.249E-03 0.000E+00

     total cpu time spent up to now is        2.2 secs

     WARNING: integrated charge=    27.98533408, expected=    28.00000000

     total energy              =    -448.56082844 Ry
     estimated scf accuracy    <       3.55061816 Ry

     iteration #  8     ecut=   140.00 Ry     beta= 0.70
     Davidson diagonalization with overlap
     ethr =  1.00E-02,  avg # of iterations =  1.0

     negative rho (up, down):  1.139E-03 0.000E+00

     total cpu time spent up to now is        2.3 secs

     WARNING: integrated charge=    27.98614337, expected=    28.00000000

     total energy              =    -448.49531739 Ry
     estimated scf accuracy    <       0.89566319 Ry

     iteration #  9     ecut=   140.00 Ry     beta= 0.70
     Davidson diagonalization with overlap
     ethr =  3.20E-03,  avg # of iterations =  2.1
     Minimization algorithm failed to find Fermi energy: reverting to bisection
     Possible cause: smearing is larger than the electronic band-gap.

     negative rho (up, down):  1.144E-03 0.000E+00

     total cpu time spent up to now is        2.5 secs

     WARNING: integrated charge=    27.98605583, expected=    28.00000000

     total energy              =    -448.59883535 Ry
     estimated scf accuracy    <       0.13101876 Ry

     iteration # 10     ecut=   140.00 Ry     beta= 0.70
     Davidson diagonalization with overlap
     ethr =  4.68E-04,  avg # of iterations =  1.7
     Minimization algorithm failed to find Fermi energy: reverting to bisection
     Possible cause: smearing is larger than the electronic band-gap.

     negative rho (up, down):  1.215E-03 0.000E+00

     total cpu time spent up to now is        2.7 secs

     WARNING: integrated charge=    27.98502225, expected=    28.00000000

     total energy              =    -448.57824027 Ry
     estimated scf accuracy    <       0.14576931 Ry

     iteration # 11     ecut=   140.00 Ry     beta= 0.70
     Davidson diagonalization with overlap
     ethr =  4.68E-04,  avg # of iterations =  1.7

     negative rho (up, down):  1.328E-03 0.000E+00

     total cpu time spent up to now is        2.9 secs

     WARNING: integrated charge=    27.98549164, expected=    28.00000000

     total energy              =    -448.59522529 Ry
     estimated scf accuracy    <       0.00728391 Ry

     iteration # 12     ecut=   140.00 Ry     beta= 0.70
     Davidson diagonalization with overlap
     ethr =  2.60E-05,  avg # of iterations =  6.7

     negative rho (up, down):  1.197E-03 0.000E+00

     total cpu time spent up to now is        3.2 secs

     WARNING: integrated charge=    27.98636242, expected=    28.00000000

     total energy              =    -448.50771596 Ry
     estimated scf accuracy    <       0.77403614 Ry

     iteration # 13     ecut=   140.00 Ry     beta= 0.70
     Davidson diagonalization with overlap
     ethr =  2.60E-05,  avg # of iterations =  5.8

     negative rho (up, down):  3.127E-03 0.000E+00

     total cpu time spent up to now is        3.5 secs

     WARNING: integrated charge=    27.99918080, expected=    28.00000000

     total energy              =    -448.59833814 Ry
     estimated scf accuracy    <       0.15629857 Ry

     iteration # 14     ecut=   140.00 Ry     beta= 0.70
     Davidson diagonalization with overlap
     ethr =  2.60E-05,  avg # of iterations =  9.5

     negative rho (up, down):  1.260E-03 0.000E+00

     total cpu time spent up to now is        4.0 secs

     WARNING: integrated charge=    27.99685818, expected=    28.00000000

     total energy              =    -446.26308393 Ry
     estimated scf accuracy    <      39.33104870 Ry

     iteration # 15     ecut=   140.00 Ry     beta= 0.70
     Davidson diagonalization with overlap
     ethr =  2.60E-05,  avg # of iterations = 10.1

     negative rho (up, down):  1.359E-03 0.000E+00

     total cpu time spent up to now is        4.6 secs

     WARNING: integrated charge=    27.99906704, expected=    28.00000000

     total energy              =    -448.58508185 Ry
     estimated scf accuracy    <       0.15354905 Ry

     iteration # 16     ecut=   140.00 Ry     beta= 0.70
     Davidson diagonalization with overlap
     ethr =  2.60E-05,  avg # of iterations =  4.9

     negative rho (up, down):  1.367E-03 0.000E+00

     total cpu time spent up to now is        4.8 secs

     WARNING: integrated charge=    28.00002740, expected=    28.00000000

     total energy              =    -448.59176564 Ry
     estimated scf accuracy    <       0.03044459 Ry

     iteration # 17     ecut=   140.00 Ry     beta= 0.70
     Davidson diagonalization with overlap
     ethr =  2.60E-05,  avg # of iterations =  2.0

     negative rho (up, down):  1.373E-03 0.000E+00

     total cpu time spent up to now is        5.0 secs

     WARNING: integrated charge=    27.99982346, expected=    28.00000000

     total energy              =    -448.59361652 Ry
     estimated scf accuracy    <       0.01167411 Ry

     iteration # 18     ecut=   140.00 Ry     beta= 0.70
     Davidson diagonalization with overlap
     ethr =  2.60E-05,  avg # of iterations =  1.0

     negative rho (up, down):  1.387E-03 0.000E+00

     total cpu time spent up to now is        5.2 secs

     WARNING: integrated charge=    27.99972182, expected=    28.00000000

     total energy              =    -448.59139009 Ry
     estimated scf accuracy    <       0.01443507 Ry

     iteration # 19     ecut=   140.00 Ry     beta= 0.70
     Davidson diagonalization with overlap
     ethr =  2.60E-05,  avg # of iterations =  2.0

     negative rho (up, down):  1.348E-03 0.000E+00

     total cpu time spent up to now is        5.4 secs

     WARNING: integrated charge=    27.99956421, expected=    28.00000000

     total energy              =    -448.59139937 Ry
     estimated scf accuracy    <       0.01757502 Ry

     iteration # 20     ecut=   140.00 Ry     beta= 0.70
     Davidson diagonalization with overlap
     ethr =  2.60E-05,  avg # of iterations =  2.0

     negative rho (up, down):  1.491E-03 0.000E+00

     total cpu time spent up to now is        5.6 secs

     WARNING: integrated charge=    28.00127158, expected=    28.00000000

     total energy              =    -448.59926328 Ry
     estimated scf accuracy    <       0.02157418 Ry

     iteration # 21     ecut=   140.00 Ry     beta= 0.70
     Davidson diagonalization with overlap
     ethr =  2.60E-05,  avg # of iterations =  4.0

     negative rho (up, down):  1.580E-03 0.000E+00

     total cpu time spent up to now is        5.8 secs

     WARNING: integrated charge=    28.00001067, expected=    28.00000000

     total energy              =    -448.61955389 Ry
     estimated scf accuracy    <       0.12123876 Ry

     iteration # 22     ecut=   140.00 Ry     beta= 0.70
     Davidson diagonalization with overlap
     ethr =  2.60E-05,  avg # of iterations =  4.1

     negative rho (up, down):  1.650E-03 0.000E+00

     total cpu time spent up to now is        6.1 secs

     WARNING: integrated charge=    28.00067747, expected=    28.00000000

     total energy              =    -448.63670334 Ry
     estimated scf accuracy    <       0.27657654 Ry

     iteration # 23     ecut=   140.00 Ry     beta= 0.70
     Davidson diagonalization with overlap
     ethr =  2.60E-05,  avg # of iterations =  2.2

     negative rho (up, down):  1.227E-03 0.000E+00

     total cpu time spent up to now is        6.3 secs

     WARNING: integrated charge=    27.99955118, expected=    28.00000000

     total energy              =    -448.55246040 Ry
     estimated scf accuracy    <       0.40353638 Ry

     iteration # 24     ecut=   140.00 Ry     beta= 0.70
     Davidson diagonalization with overlap
     ethr =  2.60E-05,  avg # of iterations =  5.9

     negative rho (up, down):  1.241E-03 0.000E+00

     total cpu time spent up to now is        6.6 secs

     WARNING: integrated charge=    28.00001219, expected=    28.00000000

     total energy              =    -448.58922185 Ry
     estimated scf accuracy    <       0.00281259 Ry

     iteration # 25     ecut=   140.00 Ry     beta= 0.70
     Davidson diagonalization with overlap
     ethr =  1.00E-05,  avg # of iterations =  1.3

     negative rho (up, down):  1.225E-03 0.000E+00

     total cpu time spent up to now is        6.8 secs

     WARNING: integrated charge=    28.00009046, expected=    28.00000000

     total energy              =    -448.58927269 Ry
     estimated scf accuracy    <       0.00042686 Ry

     iteration # 26     ecut=   140.00 Ry     beta= 0.70
     Davidson diagonalization with overlap
     ethr =  1.52E-06,  avg # of iterations =  4.2

     negative rho (up, down):  1.232E-03 0.000E+00

     total cpu time spent up to now is        7.0 secs

     WARNING: integrated charge=    28.00004365, expected=    28.00000000

     total energy              =    -448.58937289 Ry
     estimated scf accuracy    <       0.00052957 Ry

     iteration # 27     ecut=   140.00 Ry     beta= 0.70
     Davidson diagonalization with overlap
     ethr =  1.52E-06,  avg # of iterations =  1.1

     negative rho (up, down):  1.232E-03 0.000E+00

     total cpu time spent up to now is        7.2 secs

     WARNING: integrated charge=    28.00001791, expected=    28.00000000

     total energy              =    -448.58938593 Ry
     estimated scf accuracy    <       0.00008389 Ry

     iteration # 28     ecut=   140.00 Ry     beta= 0.70
     Davidson diagonalization with overlap
     ethr =  3.00E-07,  avg # of iterations =  2.6

     negative rho (up, down):  1.232E-03 0.000E+00

     total cpu time spent up to now is        7.4 secs

     WARNING: integrated charge=    28.00001684, expected=    28.00000000

     total energy              =    -448.58939040 Ry
     estimated scf accuracy    <       0.00001881 Ry

     iteration # 29     ecut=   140.00 Ry     beta= 0.70
     Davidson diagonalization with overlap
     ethr =  6.72E-08,  avg # of iterations =  3.1

     negative rho (up, down):  1.233E-03 0.000E+00

     total cpu time spent up to now is        7.6 secs

     WARNING: integrated charge=    28.00000571, expected=    28.00000000

     total energy              =    -448.58939074 Ry
     estimated scf accuracy    <       0.00001495 Ry

     iteration # 30     ecut=   140.00 Ry     beta= 0.70
     Davidson diagonalization with overlap
     ethr =  5.34E-08,  avg # of iterations =  1.2

     negative rho (up, down):  1.234E-03 0.000E+00

     total cpu time spent up to now is        7.8 secs

     WARNING: integrated charge=    28.00000565, expected=    28.00000000

     total energy              =    -448.58939036 Ry
     estimated scf accuracy    <       0.00000387 Ry

     iteration # 31     ecut=   140.00 Ry     beta= 0.70
     Davidson diagonalization with overlap
     ethr =  1.38E-08,  avg # of iterations =  2.9

     negative rho (up, down):  1.234E-03 0.000E+00

     total cpu time spent up to now is        8.0 secs

     total energy              =    -448.58939099 Ry
     estimated scf accuracy    <       0.00000031 Ry

     iteration # 32     ecut=   140.00 Ry     beta= 0.70
     Davidson diagonalization with overlap
     ethr =  1.11E-09,  avg # of iterations =  4.4

     negative rho (up, down):  1.234E-03 0.000E+00

     total cpu time spent up to now is        8.2 secs

     total energy              =    -448.58939104 Ry
     estimated scf accuracy    <       0.00000123 Ry

     iteration # 33     ecut=   140.00 Ry     beta= 0.70
     Davidson diagonalization with overlap
     ethr =  1.11E-09,  avg # of iterations =  1.0

     negative rho (up, down):  1.234E-03 0.000E+00

     total cpu time spent up to now is        8.4 secs

     total energy              =    -448.58939101 Ry
     estimated scf accuracy    <       0.00000059 Ry

     iteration # 34     ecut=   140.00 Ry     beta= 0.70
     Davidson diagonalization with overlap
     ethr =  1.11E-09,  avg # of iterations =  1.0

     negative rho (up, down):  1.233E-03 0.000E+00

     total cpu time spent up to now is        8.6 secs

     total energy              =    -448.58939099 Ry
     estimated scf accuracy    <       0.00000022 Ry

     iteration # 35     ecut=   140.00 Ry     beta= 0.70
     Davidson diagonalization with overlap
     ethr =  7.80E-10,  avg # of iterations =  2.0

     negative rho (up, down):  1.233E-03 0.000E+00

     total cpu time spent up to now is        8.8 secs

     End of self-consistent calculation

          k = 0.0000 0.0000 0.0000 (  4801 PWs)   bands (ev):

   -69.1990 -39.1368 -35.2646 -35.2646 -35.2646 -15.2319 -15.2319 -15.2319
    10.1609  13.8799  13.8799  16.6527  16.6527  16.6527  19.0182  19.0182
    20.9454  20.9454

          k = 0.0000 0.0000 0.1111 (  4821 PWs)   bands (ev):

   -69.1986 -39.1337 -35.2683 -35.2641 -35.2641 -15.2750 -15.2293 -15.2293
    10.4181  14.0040  14.0118  16.6342  16.6342  16.7086  18.8606  19.0760
    20.5834  20.5834

          k = 0.0000 0.0000 0.2222 (  4801 PWs)   bands (ev):

   -69.1976 -39.1257 -35.2777 -35.2626 -35.2626 -15.3831 -15.2228 -15.2228
    11.1517  14.3260  14.3625  16.5975  16.5975  16.8593  18.4145  19.1804
    19.8193  19.8193

          k = 0.0000 0.0000 0.3333 (  4789 PWs)   bands (ev):

   -69.1964 -39.1167 -35.2882 -35.2610 -35.2610 -15.5040 -15.2154 -15.2154
    12.2426  14.5737  14.9037  16.5793  16.5793  17.0509  17.7687  19.0871
    19.0930  19.0930

          k = 0.0000 0.0000 0.4444 (  4805 PWs)   bands (ev):

   -69.1956 -39.1109 -35.2950 -35.2599 -35.2599 -15.5819 -15.2105 -15.2105
    13.4452  14.3676  15.4607  16.5873  16.5873  17.1408  17.1916  18.6583
    18.6583  18.7087

          k = 0.0000 0.1111 0.1111 (  4805 PWs)   bands (ev):

   -69.1982 -39.1303 -35.2697 -35.2663 -35.2635 -15.2763 -15.2674 -15.2266
    10.6675  14.1160  14.1478  16.5129  16.5991  16.8408  18.8494  19.0342
    20.2167  20.2245

          k = 0.0000 0.1111 0.2222 (  4791 PWs)   bands (ev):

   -69.1972 -39.1216 -35.2785 -35.2665 -35.2621 -15.3788 -15.2634 -15.2196
    11.3752  14.4042  14.5024  16.4047  16.5210  16.9655  18.5331  19.1208
    19.5218  19.6251

          k = 0.0000 0.1111 0.3333 (  4791 PWs)   bands (ev):

   -69.1960 -39.1118 -35.2893 -35.2659 -35.2605 -15.4978 -15.2545 -15.2117
    12.4151  14.6424  14.9843  16.3732  16.4459  16.9679  18.0289  18.7394
    19.2026  19.3036

          k = 0.0000 0.1111 0.4444 (  4805 PWs)   bands (ev):

   -69.1952 -39.1054 -35.2963 -35.2655 -35.2594 -15.5746 -15.2486 -15.2065
    13.5369  14.4251  15.4687  16.3694  16.4193  16.8511  17.6168  18.3462
    19.0636  19.1335

          k = 0.0000 0.2222 0.2222 (  4791 PWs)   bands (ev):

   -69.1962 -39.1112 -35.2825 -35.2744 -35.2607 -15.3768 -15.3563 -15.2115
    11.9929  14.5305  14.9199  16.1608  16.3858  16.9149  18.6912  18.9321
    19.0913  19.4481

          k = 0.0000 0.2222 0.3333 (  4797 PWs)   bands (ev):

   -69.1950 -39.0993 -35.2923 -35.2782 -35.2592 -15.4823 -15.3524 -15.2023
    12.8417  14.5696  15.4298  16.0248  16.3560  16.6235  18.4591  18.5764
    19.2840  19.5528

          k = 0.0000 0.2222 0.4444 (  4798 PWs)   bands (ev):

   -69.1942 -39.0915 -35.2998 -35.2796 -35.2582 -15.5560 -15.3442 -15.1963
    13.6415  14.3528  15.7857  16.0450  16.3019  16.5274  18.1764  18.3889
    19.4534  19.7729

          k = 0.0000 0.3333 0.3333 (  4773 PWs)   bands (ev):

   -69.1938 -39.0850 -35.2972 -35.2908 -35.2578 -15.4713 -15.4556 -15.1917
    13.2842  14.3483  15.7683  16.0976  16.1830  16.6031  18.5096  18.9583
    19.1443  20.0105

          k = 0.0000 0.3333 0.4444 (  4797 PWs)   bands (ev):

   -69.1931 -39.0757 -35.3038 -35.2956 -35.2568 -15.5348 -15.4514 -15.1847
    13.5519  14.1334  15.6956  15.8451  16.5553  17.2607  18.2736  19.0241
    19.4015  20.4012

          k = 0.0000 0.4444 0.4444 (  4768 PWs)   bands (ev):

   -69.1923 -39.0653 -35.3067 -35.3057 -35.2559 -15.5219 -15.5195 -15.1772
    13.4203  13.9873  15.5186  15.5692  17.4324  17.9101  18.6638  18.9115
    19.3993  20.7914

          k = 0.1111 0.1111 0.1111 (  4800 PWs)   bands (ev):

   -69.1978 -39.1266 -35.2691 -35.2691 -35.2647 -15.2762 -15.2648 -15.2648
    10.9107  14.2532  14.2532  16.4746  16.4746  16.9225  18.9322  18.9322
    19.6905  20.5517

          k = 0.1111 0.1111 0.2222 (  4798 PWs)   bands (ev):

   -69.1968 -39.1174 -35.2788 -35.2676 -35.2650 -15.3744 -15.2620 -15.2580
    11.5979  14.5529  14.5735  16.3272  16.3768  16.9237  18.6444  19.0684
    19.2978  19.7891

          k = 0.1111 0.1111 0.3333 (  4800 PWs)   bands (ev):

   -69.1956 -39.1069 -35.2901 -35.2659 -35.2651 -15.4920 -15.2512 -15.2504
    12.5965  14.7895  14.9895  16.2459  16.3027  16.7741  18.2427  18.8383
    19.0925  19.4762

          k = 0.1111 0.1111 0.4444 (  4800 PWs)   bands (ev):

   -69.1948 -39.1001 -35.2974 -35.2652 -35.2648 -15.5678 -15.2454 -15.2440
    13.6529  14.5300  15.4179  16.0842  16.4580  16.6492  17.9110  18.4586
    18.6988  19.7802

          k = 0.1111 0.2222 0.2222 (  4790 PWs)   bands (ev):

   -69.1958 -39.1067 -35.2819 -35.2753 -35.2653 -15.3714 -15.3535 -15.2513
    12.2120  14.6984  14.9701  16.1031  16.2267  16.6573  18.7911  19.0688
    19.1810  19.5681

          k = 0.1111 0.2222 0.3333 (  4796 PWs)   bands (ev):

   -69.1946 -39.0945 -35.2924 -35.2781 -35.2644 -15.4772 -15.3488 -15.2414
    13.0475  14.7576  15.3938  15.9542  16.1824  16.3729  18.6707  18.7152
    19.1727  19.8275

          k = 0.1111 0.2222 0.4444 (  4800 PWs)   bands (ev):

   -69.1938 -39.0866 -35.3003 -35.2790 -35.2637 -15.5505 -15.3407 -15.2349
    13.8169  14.5287  15.6083  15.8875  16.2159  16.4982  18.2871  18.5506
    18.9428  20.4591

          k = 0.1111 0.3333 0.3333 (  4787 PWs)   bands (ev):

   -69.1934 -39.0804 -35.2965 -35.2910 -35.2631 -15.4663 -15.4528 -15.2307
    13.5054  14.5306  15.7190  15.9954  16.0603  16.3713  18.5469  19.0371
    19.1253  20.3726

          k = 0.1111 0.3333 0.4444 (  4784 PWs)   bands (ev):

   -69.1927 -39.0711 -35.3036 -35.2950 -35.2623 -15.5307 -15.4482 -15.2237
    13.7546  14.3201  15.6395  15.7398  16.4597  17.0320  18.2658  18.9350
    19.2085  20.7257

          k = 0.1111 0.4444 0.4444 (  4772 PWs)   bands (ev):

   -69.1919 -39.0610 -35.3060 -35.3051 -35.2613 -15.5188 -15.5167 -15.2163
    13.6238  14.1761  15.4854  15.5264  17.3272  17.6515  18.3993  18.4909
    19.5181  20.9983

          k = 0.2222 0.2222 0.2222 (  4800 PWs)   bands (ev):

   -69.1947 -39.0953 -35.2803 -35.2803 -35.2739 -15.3621 -15.3465 -15.3465
    12.8083  15.1028  15.1028  15.9604  15.9604  16.1307  18.9884  18.9884
    19.7335  19.8021

          k = 0.2222 0.2222 0.3333 (  4793 PWs)   bands (ev):

   -69.1936 -39.0824 -35.2927 -35.2784 -35.2768 -15.4644 -15.3403 -15.3384
    13.5791  15.2166  15.2695  15.7968  15.8752  15.9774  18.8218  18.8528
    19.2747  20.2078

          k = 0.2222 0.2222 0.4444 (  4788 PWs)   bands (ev):

   -69.1928 -39.0739 -35.3015 -35.2781 -35.2772 -15.5365 -15.3332 -15.3300
    14.1955  14.8282  15.4052  15.6703  16.0166  16.3883  18.3329  18.6393
    19.0639  20.5597

          k = 0.2222 0.3333 0.3333 (  4791 PWs)   bands (ev):

   -69.1924 -39.0685 -35.2946 -35.2913 -35.2767 -15.4536 -15.4456 -15.3285
    14.1149  14.9655  15.6049  15.6581  15.8765  15.9421  18.5931  18.7449
    19.5880  20.3150

          k = 0.2222 0.3333 0.4444 (  4790 PWs)   bands (ev):

   -69.1917 -39.0594 -35.3029 -35.2934 -35.2760 -15.5206 -15.4402 -15.3213
    14.3031  14.7567  15.5186  15.5620  16.1378  16.5651  18.2244  18.5251
    19.6344  20.6979

          k = 0.2222 0.4444 0.4444 (  4769 PWs)   bands (ev):

   -69.1910 -39.0499 -35.3041 -35.3035 -35.2749 -15.5108 -15.5096 -15.3146
    14.1904  14.6456  15.4162  15.4464  16.8915  16.9082  18.0597  18.2602
    19.9147  21.0540

          k = 0.3333 0.3333 0.3333 (  4797 PWs)   bands (ev):

   -69.1913 -39.0549 -35.2926 -35.2926 -35.2913 -15.4399 -15.4374 -15.4374
    14.8477  15.1280  15.5018  15.5018  15.7568  15.7568  18.4590  18.4590
    20.2370  20.2370

          k = 0.3333 0.3333 0.4444 (  4783 PWs)   bands (ev):

   -69.1906 -39.0461 -35.3022 -35.2920 -35.2912 -15.5091 -15.4321 -15.4297
    14.8667  15.0661  15.4813  15.5759  15.7965  16.2302  18.0985  18.3145
    20.2305  20.7888

          k = 0.3333 0.4444 0.4444 (  4769 PWs)   bands (ev):

   -69.1898 -39.0373 -35.3019 -35.3017 -35.2904 -15.5017 -15.5014 -15.4248
    14.9383  15.1335  15.3842  15.4769  16.1995  16.2761  17.9349  18.1261
    20.5447  21.0976

          k = 0.4444 0.4444 0.4444 (  4758 PWs)   bands (ev):

   -69.1891 -39.0291 -35.3006 -35.3004 -35.3004 -15.4961 -15.4961 -15.4955
    15.2762  15.4618  15.4618  15.8019  15.8019  15.8077  17.9073  17.9073
    21.1240  21.1240

     the Fermi energy is    17.6552 ev

!    total energy              =    -448.58939100 Ry
     estimated scf accuracy    <          4.9E-09 Ry
     smearing contrib. (-TS)   =      -0.00007441 Ry
     internal energy E=F+TS    =    -448.58931659 Ry

     The total energy is F=E-TS. E is the sum of the following terms:
     one-electron contribution =    -151.35596367 Ry
     hartree contribution      =      91.63409393 Ry
     xc contribution           =     -52.89298012 Ry
     ewald contribution        =    -259.82070277 Ry
     one-center paw contrib.   =     -76.15376396 Ry

     convergence has been achieved in  35 iterations

     negative rho (up, down):  1.233E-03 0.000E+00

     Forces acting on atoms (cartesian axes, Ry/au):

     atom    1 type  1   force =     0.00000000    0.00000000    0.00000000
     atom    2 type  2   force =     0.00000000    0.00000000    0.00000000

     Total force =     0.000000     Total SCF correction =     0.000000


     Computing stress (Cartesian axis) and pressure


     negative rho (up, down):  1.233E-03 0.000E+00
          total   stress  (Ry/bohr**3)                   (kbar)     P=       36.09
   0.00024536   0.00000000   0.00000000           36.09        0.00        0.00
   0.00000000   0.00024536   0.00000000            0.00       36.09        0.00
   0.00000000   0.00000000   0.00024536            0.00        0.00       36.09


     Writing all to output data dir ./TiFe.save/ :
     XML data file, charge density, pseudopotentials, collected wavefunctions

     init_run     :      0.34s CPU      0.36s WALL (       1 calls)
     electrons    :      7.85s CPU      8.21s WALL (       1 calls)
     forces       :      0.02s CPU      0.02s WALL (       1 calls)
     stress       :      0.11s CPU      0.11s WALL (       1 calls)

     Called by init_run:
     wfcinit      :      0.07s CPU      0.08s WALL (       1 calls)
     potinit      :      0.04s CPU      0.05s WALL (       1 calls)
     hinit0       :      0.21s CPU      0.21s WALL (       1 calls)

     Called by electrons:
     c_bands      :      5.59s CPU      5.75s WALL (      35 calls)
     sum_band     :      0.79s CPU      0.82s WALL (      35 calls)
     v_of_rho     :      0.05s CPU      0.05s WALL (      36 calls)
     newd         :      0.14s CPU      0.15s WALL (      36 calls)
     PAW_pot      :      1.29s CPU      1.41s WALL (      36 calls)
     mix_rho      :      0.02s CPU      0.02s WALL (      35 calls)

     Called by c_bands:
     init_us_2    :      0.21s CPU      0.21s WALL (    1314 calls)
     cegterg      :      4.85s CPU      4.99s WALL (     630 calls)

     Called by *egterg:
     cdiaghg      :      0.76s CPU      0.78s WALL (    2594 calls)
     h_psi        :      2.88s CPU      2.98s WALL (    2612 calls)
     s_psi        :      0.16s CPU      0.16s WALL (    2612 calls)
     g_psi        :      0.04s CPU      0.04s WALL (    1964 calls)

     Called by h_psi:
     h_psi:calbec :      0.26s CPU      0.27s WALL (    2612 calls)
     vloc_psi     :      2.44s CPU      2.52s WALL (    2612 calls)
     add_vuspsi   :      0.16s CPU      0.16s WALL (    2612 calls)

     General routines
     calbec       :      0.38s CPU      0.39s WALL (    3548 calls)
     fft          :      0.17s CPU      0.17s WALL (     421 calls)
     ffts         :      0.00s CPU      0.00s WALL (      35 calls)
     fftw         :      2.55s CPU      2.63s WALL (   74238 calls)

     Parallel routines

     PWSCF        :      8.54s CPU      9.92s WALL


   This run was terminated on:  10:51:10  28Oct2025            

=------------------------------------------------------------------------------=
   JOB DONE.
=------------------------------------------------------------------------------=
Note: The following floating-point exceptions are signalling: IEEE_UNDERFLOW_FLAG IEEE_DENORMAL
Note: The following floating-point exceptions are signalling: IEEE_UNDERFLOW_FLAG IEEE_DENORMAL
Note: The following floating-point exceptions are signalling: IEEE_UNDERFLOW_FLAG IEEE_DENORMAL
Note: The following floating-point exceptions are signalling: IEEE_UNDERFLOW_FLAG IEEE_DENORMAL
Note: The following floating-point exceptions are signalling: IEEE_UNDERFLOW_FLAG IEEE_DENORMAL
Note: The following floating-point exceptions are signalling: IEEE_UNDERFLOW_FLAG IEEE_DENORMAL
Note: The following floating-point exceptions are signalling: IEEE_UNDERFLOW_FLAG IEEE_DENORMAL
Note: The following floating-point exceptions are signalling: IEEE_UNDERFLOW_FLAG IEEE_DENORMAL
Note: The following floating-point exceptions are signalling: IEEE_UNDERFLOW_FLAG IEEE_DENORMAL
Note: The following floating-point exceptions are signalling: IEEE_UNDERFLOW_FLAG IEEE_DENORMAL
Note: The following floating-point exceptions are signalling: IEEE_UNDERFLOW_FLAG IEEE_DENORMAL
Note: The following floating-point exceptions are signalling: IEEE_UNDERFLOW_FLAG IEEE_DENORMAL
Note: The following floating-point exceptions are signalling: IEEE_UNDERFLOW_FLAG IEEE_DENORMAL
Note: The following floating-point exceptions are signalling: IEEE_UNDERFLOW_FLAG IEEE_DENORMAL
Note: The following floating-point exceptions are signalling: IEEE_UNDERFLOW_FLAG IEEE_DENORMAL
Note: The following floating-point exceptions are signalling: IEEE_UNDERFLOW_FLAG IEEE_DENORMAL
