
     Program PWSCF v.7.4 starts on 28Oct2025 at 10:51:40 

     This program is part of the open-source Quantum ESPRESSO suite
     for quantum simulation of materials; please cite
         "P. Giannozzi et al., J. Phys.:Condens. Matter 21 395502 (2009);
         "P. Giannozzi et al., J. Phys.:Condens. Matter 29 465901 (2017);
         "P. Giannozzi et al., J. Chem. Phys. 152 154105 (2020);
          URL http://www.quantum-espresso.org", 
     in publications or presentations arising from this work. More details at
     http://www.quantum-espresso.org/quote

     Parallel version (MPI & OpenMP), running on      16 processor cores
     Number of MPI processes:                16
     Threads/MPI process:                     1

     MPI processes distributed on     1 nodes
     230679 MiB available memory on the printing compute node when the environment starts

     Reading input from TiFe_ecutrho_convergence/TiFe2_factor6.in

     Current dimensions of program PWSCF are:
     Max number of different atomic species (ntypx) = 10
     Max number of k-points (npk) =  40000
     Max angular momentum in pseudopotentials (lmaxx) =  4
     file Fe.pbe-spn-kjpaw_psl.0.2.1.UPF: wavefunction(s)  3D renormalized

     IMPORTANT: XC functional enforced from input :
     Exchange-correlation= PBE
                           (   1   4   3   4   0   0   0)
     Any further DFT definition will be discarded
     Please, verify this is what you really want

     Message from routine setup:
     using ibrav=0 with symmetry is DISCOURAGED, use correct ibrav instead

     R & G space division:  proc/nbgrp/npool/nimage =      16
     Subspace diagonalization in iterative solution of the eigenvalue problem:
     a serial algorithm will be used


     Parallelization info
     --------------------
     sticks:   dense  smooth     PW     G-vecs:    dense   smooth      PW
     Min         129      85     25                 4400     2399     375
     Max         131      86     26                 4401     2402     378
     Sum        2069    1369    401                70415    38401    6031

     Using Slab Decomposition



     bravais-lattice index     =            0
     lattice parameter (alat)  =       5.5533  a.u.
     unit-cell volume          =     171.2590 (a.u.)^3
     number of atoms/cell      =            2
     number of atomic types    =            2
     number of electrons       =        28.00
     number of Kohn-Sham states=           18
     kinetic-energy cutoff     =     140.0000  Ry
     charge density cutoff     =     840.0000  Ry
     scf convergence threshold =      1.0E-08
     mixing beta               =       0.7000
     number of iterations used =            8  plain     mixing
     Exchange-correlation= PBE
                           (   1   4   3   4   0   0   0)

     celldm(1)=   5.553300  celldm(2)=   0.000000  celldm(3)=   0.000000
     celldm(4)=   0.000000  celldm(5)=   0.000000  celldm(6)=   0.000000

     crystal axes: (cart. coord. in units of alat)
               a(1) = (   1.000000   0.000000   0.000000 )  
               a(2) = (   0.000000   1.000000   0.000000 )  
               a(3) = (   0.000000   0.000000   1.000000 )  

     reciprocal axes: (cart. coord. in units 2 pi/alat)
               b(1) = (  1.000000  0.000000  0.000000 )  
               b(2) = (  0.000000  1.000000  0.000000 )  
               b(3) = (  0.000000  0.000000  1.000000 )  


     PseudoPot. # 1 for Fe read from file:
     ./Fe.pbe-spn-kjpaw_psl.0.2.1.UPF
     MD5 check sum: e86618425769142926afa95317d90200
     Pseudo is Projector augmented-wave + core cor, Zval = 16.0
     Generated using "atomic" code by A. Dal Corso  v.5.0.99 svn rev. 10869
     Shape of augmentation charge: PSQ
     Using radial grid of 1191 points,  6 beta functions with: 
                l(1) =   0
                l(2) =   0
                l(3) =   1
                l(4) =   1
                l(5) =   2
                l(6) =   2
     Q(r) pseudized with 0 coefficients 


     PseudoPot. # 2 for Ti read from file:
     ./Ti_pbe_v1.4.uspp.F.UPF
     MD5 check sum: 88a00a6731bd790ddea75d31a80cb452
     Pseudo is Ultrasoft + core correction, Zval = 12.0
     Generated by new atomic code, or converted to UPF format
     Using radial grid of  851 points,  6 beta functions with: 
                l(1) =   0
                l(2) =   0
                l(3) =   1
                l(4) =   1
                l(5) =   2
                l(6) =   2
     Q(r) pseudized with  6 coefficients,  rinner =    1.000   1.000   1.000
                                                       1.000   1.000

     atomic species   valence    mass     pseudopotential
     Fe               16.00    55.84500     Fe( 1.00)
     Ti               12.00    47.86700     Ti( 1.00)

     48 Sym. Ops., with inversion, found



   Cartesian axes

     site n.     atom                  positions (alat units)
         1        Fe     tau(   1) = (   0.5000000   0.5000000   0.5000000  )
         2        Ti     tau(   2) = (   0.0000000   0.0000000   0.0000000  )

     number of k points=    35  Marzari-Vanderbilt smearing, width (Ry)=  0.0050
                       cart. coord. in units 2pi/alat
        k(    1) = (   0.0000000   0.0000000   0.0000000), wk =   0.0027435
        k(    2) = (   0.0000000   0.0000000   0.1111111), wk =   0.0164609
        k(    3) = (   0.0000000   0.0000000   0.2222222), wk =   0.0164609
        k(    4) = (   0.0000000   0.0000000   0.3333333), wk =   0.0164609
        k(    5) = (   0.0000000   0.0000000   0.4444444), wk =   0.0164609
        k(    6) = (   0.0000000   0.1111111   0.1111111), wk =   0.0329218
        k(    7) = (   0.0000000   0.1111111   0.2222222), wk =   0.0658436
        k(    8) = (   0.0000000   0.1111111   0.3333333), wk =   0.0658436
        k(    9) = (   0.0000000   0.1111111   0.4444444), wk =   0.0658436
        k(   10) = (   0.0000000   0.2222222   0.2222222), wk =   0.0329218
        k(   11) = (   0.0000000   0.2222222   0.3333333), wk =   0.0658436
        k(   12) = (   0.0000000   0.2222222   0.4444444), wk =   0.0658436
        k(   13) = (   0.0000000   0.3333333   0.3333333), wk =   0.0329218
        k(   14) = (   0.0000000   0.3333333   0.4444444), wk =   0.0658436
        k(   15) = (   0.0000000   0.4444444   0.4444444), wk =   0.0329218
        k(   16) = (   0.1111111   0.1111111   0.1111111), wk =   0.0219479
        k(   17) = (   0.1111111   0.1111111   0.2222222), wk =   0.0658436
        k(   18) = (   0.1111111   0.1111111   0.3333333), wk =   0.0658436
        k(   19) = (   0.1111111   0.1111111   0.4444444), wk =   0.0658436
        k(   20) = (   0.1111111   0.2222222   0.2222222), wk =   0.0658436
        k(   21) = (   0.1111111   0.2222222   0.3333333), wk =   0.1316872
        k(   22) = (   0.1111111   0.2222222   0.4444444), wk =   0.1316872
        k(   23) = (   0.1111111   0.3333333   0.3333333), wk =   0.0658436
        k(   24) = (   0.1111111   0.3333333   0.4444444), wk =   0.1316872
        k(   25) = (   0.1111111   0.4444444   0.4444444), wk =   0.0658436
        k(   26) = (   0.2222222   0.2222222   0.2222222), wk =   0.0219479
        k(   27) = (   0.2222222   0.2222222   0.3333333), wk =   0.0658436
        k(   28) = (   0.2222222   0.2222222   0.4444444), wk =   0.0658436
        k(   29) = (   0.2222222   0.3333333   0.3333333), wk =   0.0658436
        k(   30) = (   0.2222222   0.3333333   0.4444444), wk =   0.1316872
        k(   31) = (   0.2222222   0.4444444   0.4444444), wk =   0.0658436
        k(   32) = (   0.3333333   0.3333333   0.3333333), wk =   0.0219479
        k(   33) = (   0.3333333   0.3333333   0.4444444), wk =   0.0658436
        k(   34) = (   0.3333333   0.4444444   0.4444444), wk =   0.0658436
        k(   35) = (   0.4444444   0.4444444   0.4444444), wk =   0.0219479

     Dense  grid:    70415 G-vectors     FFT dimensions: (  54,  54,  54)

     Smooth grid:    38401 G-vectors     FFT dimensions: (  45,  45,  45)

     Estimated max dynamical RAM per process >      24.02 MB

     Estimated total dynamical RAM >     384.29 MB

     Check: negative core charge=   -0.000007

     Initial potential from superposition of free atoms

     starting charge      26.9995, renormalised to      28.0000

     negative rho (up, down):  1.357E-03 0.000E+00
     Starting wfcs are   23 randomized atomic wfcs
     Checking if some PAW data can be deallocated... 

     total cpu time spent up to now is        0.8 secs

     per-process dynamical memory:   130.0 Mb

     Self-consistent Calculation

     iteration #  1     ecut=   140.00 Ry     beta= 0.70
     Davidson diagonalization with overlap
     ethr =  1.00E-02,  avg # of iterations =  2.1

     negative rho (up, down):  1.690E-04 0.000E+00

     total cpu time spent up to now is        1.3 secs

     WARNING: integrated charge=    28.00077116, expected=    28.00000000

     total energy              =    -434.87439642 Ry
     estimated scf accuracy    <      17.48280936 Ry

     iteration #  2     ecut=   140.00 Ry     beta= 0.70
     Davidson diagonalization with overlap
     ethr =  1.00E-02,  avg # of iterations =  6.1

     negative rho (up, down):  5.490E-05 0.000E+00

     total cpu time spent up to now is        2.1 secs

     WARNING: integrated charge=    28.00058831, expected=    28.00000000

     total energy              =    -448.52121739 Ry
     estimated scf accuracy    <      66.12296668 Ry

     iteration #  3     ecut=   140.00 Ry     beta= 0.70
     Davidson diagonalization with overlap
     ethr =  1.00E-02,  avg # of iterations =  3.1

     negative rho (up, down):  2.096E-04 0.000E+00

     total cpu time spent up to now is        2.7 secs

     WARNING: integrated charge=    28.00046929, expected=    28.00000000

     total energy              =    -448.59439349 Ry
     estimated scf accuracy    <      16.78587579 Ry

     iteration #  4     ecut=   140.00 Ry     beta= 0.70
     Davidson diagonalization with overlap
     ethr =  1.00E-02,  avg # of iterations =  2.2

     negative rho (up, down):  2.483E-04 0.000E+00

     total cpu time spent up to now is        3.1 secs

     WARNING: integrated charge=    28.00045630, expected=    28.00000000

     total energy              =    -449.11474061 Ry
     estimated scf accuracy    <       4.69929342 Ry

     iteration #  5     ecut=   140.00 Ry     beta= 0.70
     Davidson diagonalization with overlap
     ethr =  1.00E-02,  avg # of iterations =  1.0

     negative rho (up, down):  3.133E-04 0.000E+00

     total cpu time spent up to now is        3.5 secs

     WARNING: integrated charge=    28.00042555, expected=    28.00000000

     total energy              =    -449.11070581 Ry
     estimated scf accuracy    <       4.29773282 Ry

     iteration #  6     ecut=   140.00 Ry     beta= 0.70
     Davidson diagonalization with overlap
     ethr =  1.00E-02,  avg # of iterations =  1.1

     negative rho (up, down):  1.042E-03 0.000E+00

     total cpu time spent up to now is        3.9 secs

     WARNING: integrated charge=    28.00020609, expected=    28.00000000

     total energy              =    -447.87737562 Ry
     estimated scf accuracy    <       4.56739545 Ry

     iteration #  7     ecut=   140.00 Ry     beta= 0.70
     Davidson diagonalization with overlap
     ethr =  1.00E-02,  avg # of iterations =  3.4

     negative rho (up, down):  8.648E-04 0.000E+00

     total cpu time spent up to now is        4.4 secs

     WARNING: integrated charge=    28.00018736, expected=    28.00000000

     total energy              =    -448.59948185 Ry
     estimated scf accuracy    <       4.35792253 Ry

     iteration #  8     ecut=   140.00 Ry     beta= 0.70
     Davidson diagonalization with overlap
     ethr =  1.00E-02,  avg # of iterations =  1.0

     negative rho (up, down):  6.654E-04 0.000E+00

     total cpu time spent up to now is        4.8 secs

     WARNING: integrated charge=    28.00013964, expected=    28.00000000

     total energy              =    -448.39015036 Ry
     estimated scf accuracy    <       1.54168852 Ry

     iteration #  9     ecut=   140.00 Ry     beta= 0.70
     Davidson diagonalization with overlap
     ethr =  5.51E-03,  avg # of iterations =  1.9

     negative rho (up, down):  6.639E-04 0.000E+00

     total cpu time spent up to now is        5.2 secs

     WARNING: integrated charge=    28.00013561, expected=    28.00000000

     total energy              =    -448.62336385 Ry
     estimated scf accuracy    <       0.47069539 Ry

     iteration # 10     ecut=   140.00 Ry     beta= 0.70
     Davidson diagonalization with overlap
     ethr =  1.68E-03,  avg # of iterations =  1.2

     negative rho (up, down):  6.302E-04 0.000E+00

     total cpu time spent up to now is        5.6 secs

     WARNING: integrated charge=    28.00010077, expected=    28.00000000

     total energy              =    -448.67542276 Ry
     estimated scf accuracy    <       0.55456429 Ry

     iteration # 11     ecut=   140.00 Ry     beta= 0.70
     Davidson diagonalization with overlap
     ethr =  1.68E-03,  avg # of iterations =  1.2

     negative rho (up, down):  6.174E-04 0.000E+00

     total cpu time spent up to now is        6.0 secs

     WARNING: integrated charge=    28.00002259, expected=    28.00000000

     total energy              =    -448.66005638 Ry
     estimated scf accuracy    <       1.33105454 Ry

     iteration # 12     ecut=   140.00 Ry     beta= 0.70
     Davidson diagonalization with overlap
     ethr =  1.68E-03,  avg # of iterations =  1.0

     negative rho (up, down):  6.517E-04 0.000E+00

     total cpu time spent up to now is        6.4 secs

     WARNING: integrated charge=    28.00002375, expected=    28.00000000

     total energy              =    -448.62991205 Ry
     estimated scf accuracy    <       0.90638524 Ry

     iteration # 13     ecut=   140.00 Ry     beta= 0.70
     Davidson diagonalization with overlap
     ethr =  1.68E-03,  avg # of iterations =  1.0

     negative rho (up, down):  6.477E-04 0.000E+00

     total cpu time spent up to now is        6.8 secs

     WARNING: integrated charge=    27.99999177, expected=    28.00000000

     total energy              =    -448.62243853 Ry
     estimated scf accuracy    <       0.48791400 Ry

     iteration # 14     ecut=   140.00 Ry     beta= 0.70
     Davidson diagonalization with overlap
     ethr =  1.68E-03,  avg # of iterations =  1.0

     negative rho (up, down):  6.536E-04 0.000E+00

     total cpu time spent up to now is        7.2 secs

     WARNING: integrated charge=    27.99999470, expected=    28.00000000

     total energy              =    -448.63469765 Ry
     estimated scf accuracy    <       0.30672381 Ry

     iteration # 15     ecut=   140.00 Ry     beta= 0.70
     Davidson diagonalization with overlap
     ethr =  1.10E-03,  avg # of iterations =  1.0

     negative rho (up, down):  6.500E-04 0.000E+00

     total cpu time spent up to now is        7.6 secs

     WARNING: integrated charge=    27.99998835, expected=    28.00000000

     total energy              =    -448.63682879 Ry
     estimated scf accuracy    <       0.42352368 Ry

     iteration # 16     ecut=   140.00 Ry     beta= 0.70
     Davidson diagonalization with overlap
     ethr =  1.10E-03,  avg # of iterations =  1.0

     negative rho (up, down):  6.646E-04 0.000E+00

     total cpu time spent up to now is        8.0 secs

     WARNING: integrated charge=    27.99999143, expected=    28.00000000

     total energy              =    -448.63315755 Ry
     estimated scf accuracy    <       0.39604823 Ry

     iteration # 17     ecut=   140.00 Ry     beta= 0.70
     Davidson diagonalization with overlap
     ethr =  1.10E-03,  avg # of iterations =  1.0

     negative rho (up, down):  8.443E-04 0.000E+00

     total cpu time spent up to now is        8.3 secs

     WARNING: integrated charge=    28.00000380, expected=    28.00000000

     total energy              =    -448.52643070 Ry
     estimated scf accuracy    <       0.41999045 Ry

     iteration # 18     ecut=   140.00 Ry     beta= 0.70
     Davidson diagonalization with overlap
     ethr =  1.10E-03,  avg # of iterations =  3.4

     negative rho (up, down):  7.883E-04 0.000E+00

     total cpu time spent up to now is        8.8 secs

     WARNING: integrated charge=    27.99999398, expected=    28.00000000

     total energy              =    -448.56994443 Ry
     estimated scf accuracy    <       0.14940026 Ry

     iteration # 19     ecut=   140.00 Ry     beta= 0.70
     Davidson diagonalization with overlap
     ethr =  5.34E-04,  avg # of iterations =  1.6

     negative rho (up, down):  8.501E-04 0.000E+00

     total cpu time spent up to now is        9.2 secs

     WARNING: integrated charge=    28.00000293, expected=    28.00000000

     total energy              =    -448.58545971 Ry
     estimated scf accuracy    <       0.00470328 Ry

     iteration # 20     ecut=   140.00 Ry     beta= 0.70
     Davidson diagonalization with overlap
     ethr =  1.68E-05,  avg # of iterations =  4.6

     negative rho (up, down):  8.239E-04 0.000E+00

     total cpu time spent up to now is        9.8 secs

     WARNING: integrated charge=    28.00000581, expected=    28.00000000

     total energy              =    -448.58992037 Ry
     estimated scf accuracy    <       0.00708281 Ry

     iteration # 21     ecut=   140.00 Ry     beta= 0.70
     Davidson diagonalization with overlap
     ethr =  1.68E-05,  avg # of iterations =  2.1

     negative rho (up, down):  8.087E-04 0.000E+00

     total cpu time spent up to now is       10.2 secs

     total energy              =    -448.58551383 Ry
     estimated scf accuracy    <       0.02842141 Ry

     iteration # 22     ecut=   140.00 Ry     beta= 0.70
     Davidson diagonalization with overlap
     ethr =  1.68E-05,  avg # of iterations =  2.2

     negative rho (up, down):  8.020E-04 0.000E+00

     total cpu time spent up to now is       10.6 secs

     total energy              =    -448.58639046 Ry
     estimated scf accuracy    <       0.00513545 Ry

     iteration # 23     ecut=   140.00 Ry     beta= 0.70
     Davidson diagonalization with overlap
     ethr =  1.68E-05,  avg # of iterations =  1.1

     negative rho (up, down):  8.096E-04 0.000E+00

     total cpu time spent up to now is       11.0 secs

     total energy              =    -448.58643318 Ry
     estimated scf accuracy    <       0.00145001 Ry

     iteration # 24     ecut=   140.00 Ry     beta= 0.70
     Davidson diagonalization with overlap
     ethr =  5.18E-06,  avg # of iterations =  3.1

     negative rho (up, down):  8.094E-04 0.000E+00

     total cpu time spent up to now is       11.5 secs

     total energy              =    -448.58656678 Ry
     estimated scf accuracy    <       0.00001104 Ry

     iteration # 25     ecut=   140.00 Ry     beta= 0.70
     Davidson diagonalization with overlap
     ethr =  3.94E-08,  avg # of iterations =  5.6

     negative rho (up, down):  8.079E-04 0.000E+00

     total cpu time spent up to now is       12.1 secs

     total energy              =    -448.58659134 Ry
     estimated scf accuracy    <       0.00001244 Ry

     iteration # 26     ecut=   140.00 Ry     beta= 0.70
     Davidson diagonalization with overlap
     ethr =  3.94E-08,  avg # of iterations =  1.0

     negative rho (up, down):  8.027E-04 0.000E+00

     total cpu time spent up to now is       12.5 secs

     total energy              =    -448.58658597 Ry
     estimated scf accuracy    <       0.00001214 Ry

     iteration # 27     ecut=   140.00 Ry     beta= 0.70
     Davidson diagonalization with overlap
     ethr =  3.94E-08,  avg # of iterations =  3.0

     negative rho (up, down):  8.023E-04 0.000E+00

     total cpu time spent up to now is       13.0 secs

     total energy              =    -448.58658912 Ry
     estimated scf accuracy    <       0.00000446 Ry

     iteration # 28     ecut=   140.00 Ry     beta= 0.70
     Davidson diagonalization with overlap
     ethr =  1.59E-08,  avg # of iterations =  1.0

     negative rho (up, down):  8.026E-04 0.000E+00

     total cpu time spent up to now is       13.4 secs

     total energy              =    -448.58658912 Ry
     estimated scf accuracy    <       0.00000129 Ry

     iteration # 29     ecut=   140.00 Ry     beta= 0.70
     Davidson diagonalization with overlap
     ethr =  4.61E-09,  avg # of iterations =  1.3

     negative rho (up, down):  8.035E-04 0.000E+00

     total cpu time spent up to now is       13.8 secs

     total energy              =    -448.58658871 Ry
     estimated scf accuracy    <       0.00000075 Ry

     iteration # 30     ecut=   140.00 Ry     beta= 0.70
     Davidson diagonalization with overlap
     ethr =  2.69E-09,  avg # of iterations =  2.5

     negative rho (up, down):  8.034E-04 0.000E+00

     total cpu time spent up to now is       14.3 secs

     total energy              =    -448.58658892 Ry
     estimated scf accuracy    <       0.00000005 Ry

     iteration # 31     ecut=   140.00 Ry     beta= 0.70
     Davidson diagonalization with overlap
     ethr =  1.74E-10,  avg # of iterations =  2.9

     negative rho (up, down):  8.033E-04 0.000E+00

     total cpu time spent up to now is       14.7 secs

     End of self-consistent calculation

          k = 0.0000 0.0000 0.0000 (  4801 PWs)   bands (ev):

   -69.2042 -39.1410 -35.2661 -35.2661 -35.2661 -15.2359 -15.2359 -15.2359
    10.1529  13.8668  13.8668  16.6614  16.6614  16.6614  19.0044  19.0044
    20.9448  20.9448

          k = 0.0000 0.0000 0.1111 (  4821 PWs)   bands (ev):

   -69.2038 -39.1379 -35.2698 -35.2655 -35.2655 -15.2790 -15.2333 -15.2333
    10.4101  13.9907  13.9986  16.6429  16.6429  16.7175  18.8472  19.0620
    20.5823  20.5823

          k = 0.0000 0.0000 0.2222 (  4801 PWs)   bands (ev):

   -69.2028 -39.1299 -35.2791 -35.2641 -35.2641 -15.3870 -15.2267 -15.2267
    11.1436  14.3127  14.3486  16.6063  16.6063  16.8689  18.4023  19.1656
    19.8172  19.8172

          k = 0.0000 0.0000 0.3333 (  4789 PWs)   bands (ev):

   -69.2016 -39.1209 -35.2896 -35.2624 -35.2624 -15.5080 -15.2193 -15.2193
    12.2344  14.5612  14.8884  16.5884  16.5884  17.0614  17.7585  19.0699
    19.0898  19.0898

          k = 0.0000 0.0000 0.4444 (  4805 PWs)   bands (ev):

   -69.2008 -39.1151 -35.2965 -35.2614 -35.2614 -15.5860 -15.2144 -15.2144
    13.4362  14.3573  15.4423  16.5970  16.5970  17.1340  17.2029  18.6543
    18.6543  18.6886

          k = 0.0000 0.1111 0.1111 (  4805 PWs)   bands (ev):

   -69.2034 -39.1345 -35.2712 -35.2677 -35.2650 -15.2802 -15.2714 -15.2305
    10.6595  14.1026  14.1344  16.5211  16.6075  16.8505  18.8364  19.0204
    20.2144  20.2227

          k = 0.0000 0.1111 0.2222 (  4791 PWs)   bands (ev):

   -69.2024 -39.1258 -35.2800 -35.2680 -35.2635 -15.3828 -15.2673 -15.2236
    11.3672  14.3907  14.4886  16.4126  16.5286  16.9760  18.5220  19.1065
    19.5187  19.6217

          k = 0.0000 0.1111 0.3333 (  4791 PWs)   bands (ev):

   -69.2012 -39.1160 -35.2908 -35.2674 -35.2619 -15.5019 -15.2584 -15.2156
    12.4071  14.6302  14.9693  16.3812  16.4516  16.9783  18.0218  18.7288
    19.1995  19.2930

          k = 0.0000 0.1111 0.4444 (  4805 PWs)   bands (ev):

   -69.2004 -39.1096 -35.2978 -35.2669 -35.2609 -15.5786 -15.2526 -15.2104
    13.5282  14.4159  15.4510  16.3727  16.4279  16.8599  17.6151  18.3321
    19.0622  19.1220

          k = 0.0000 0.2222 0.2222 (  4791 PWs)   bands (ev):

   -69.2014 -39.1154 -35.2840 -35.2759 -35.2622 -15.3808 -15.3603 -15.2155
    11.9851  14.5177  14.9057  16.1679  16.3906  16.9253  18.6820  18.9277
    19.0774  19.4445

          k = 0.0000 0.2222 0.3333 (  4797 PWs)   bands (ev):

   -69.2002 -39.1035 -35.2938 -35.2797 -35.2607 -15.4863 -15.3564 -15.2063
    12.8342  14.5595  15.4148  16.0314  16.3565  16.6321  18.4522  18.5678
    19.2724  19.5511

          k = 0.0000 0.2222 0.4444 (  4798 PWs)   bands (ev):

   -69.1994 -39.0957 -35.3013 -35.2810 -35.2597 -15.5600 -15.3482 -15.2003
    13.6333  14.3472  15.7686  16.0519  16.3089  16.5253  18.1620  18.3865
    19.4418  19.7733

          k = 0.0000 0.3333 0.3333 (  4773 PWs)   bands (ev):

   -69.1990 -39.0892 -35.2986 -35.2923 -35.2592 -15.4753 -15.4596 -15.1956
    13.2771  14.3424  15.7743  16.0817  16.1899  16.5974  18.4983  18.9569
    19.1302  20.0104

          k = 0.0000 0.3333 0.4444 (  4797 PWs)   bands (ev):

   -69.1983 -39.0799 -35.3053 -35.2970 -35.2583 -15.5388 -15.4554 -15.1887
    13.5431  14.1320  15.7014  15.8511  16.5379  17.2527  18.2578  19.0234
    19.3897  20.4024

          k = 0.0000 0.4444 0.4444 (  4768 PWs)   bands (ev):

   -69.1975 -39.0695 -35.3082 -35.3072 -35.2574 -15.5260 -15.5235 -15.1811
    13.4110  13.9878  15.5239  15.5746  17.4120  17.8949  18.6533  18.8990
    19.3999  20.7931

          k = 0.1111 0.1111 0.1111 (  4800 PWs)   bands (ev):

   -69.2030 -39.1308 -35.2706 -35.2706 -35.2661 -15.2802 -15.2687 -15.2687
    10.9028  14.2397  14.2397  16.4825  16.4825  16.9328  18.9191  18.9191
    19.6870  20.5508

          k = 0.1111 0.1111 0.2222 (  4798 PWs)   bands (ev):

   -69.2020 -39.1216 -35.2803 -35.2691 -35.2665 -15.3784 -15.2659 -15.2620
    11.5900  14.5390  14.5600  16.3345  16.3837  16.9340  18.6336  19.0553
    19.2931  19.7868

          k = 0.1111 0.1111 0.3333 (  4800 PWs)   bands (ev):

   -69.2008 -39.1111 -35.2916 -35.2674 -35.2666 -15.4960 -15.2551 -15.2543
    12.5887  14.7776  14.9748  16.2511  16.3095  16.7822  18.2363  18.8266
    19.0882  19.4695

          k = 0.1111 0.1111 0.4444 (  4800 PWs)   bands (ev):

   -69.2001 -39.1043 -35.2989 -35.2666 -35.2662 -15.5718 -15.2493 -15.2480
    13.6445  14.5217  15.4012  16.0882  16.4641  16.6557  17.9097  18.4426
    18.6925  19.7756

          k = 0.1111 0.2222 0.2222 (  4790 PWs)   bands (ev):

   -69.2010 -39.1109 -35.2834 -35.2767 -35.2667 -15.3753 -15.3575 -15.2552
    12.2043  14.6853  14.9560  16.1096  16.2316  16.6656  18.7807  19.0553
    19.1788  19.5653

          k = 0.1111 0.2222 0.3333 (  4796 PWs)   bands (ev):

   -69.1998 -39.0987 -35.2938 -35.2796 -35.2659 -15.4812 -15.3528 -15.2454
    13.0401  14.7476  15.3797  15.9600  16.1842  16.3783  18.6602  18.7090
    19.1637  19.8255

          k = 0.1111 0.2222 0.4444 (  4800 PWs)   bands (ev):

   -69.1990 -39.0907 -35.3017 -35.2805 -35.2652 -15.5545 -15.3446 -15.2388
    13.8089  14.5241  15.5936  15.8927  16.2207  16.4967  18.2709  18.5491
    18.9338  20.4572

          k = 0.1111 0.3333 0.3333 (  4787 PWs)   bands (ev):

   -69.1987 -39.0845 -35.2979 -35.2924 -35.2646 -15.4703 -15.4568 -15.2346
    13.4982  14.5252  15.7243  16.0001  16.0454  16.3674  18.5345  19.0226
    19.1243  20.3727

          k = 0.1111 0.3333 0.4444 (  4784 PWs)   bands (ev):

   -69.1979 -39.0753 -35.3050 -35.2964 -35.2637 -15.5348 -15.4522 -15.2276
    13.7458  14.3194  15.6445  15.7439  16.4458  17.0248  18.2489  18.9231
    19.2083  20.7255

          k = 0.1111 0.4444 0.4444 (  4772 PWs)   bands (ev):

   -69.1972 -39.0651 -35.3074 -35.3066 -35.2628 -15.5228 -15.5207 -15.2203
    13.6145  14.1771  15.4904  15.5314  17.3097  17.6412  18.3851  18.4776
    19.5189  20.9963

          k = 0.2222 0.2222 0.2222 (  4800 PWs)   bands (ev):

   -69.2000 -39.0995 -35.2817 -35.2817 -35.2753 -15.3661 -15.3504 -15.3504
    12.8007  15.0890  15.0890  15.9656  15.9656  16.1367  18.9756  18.9756
    19.7331  19.8015

          k = 0.2222 0.2222 0.3333 (  4793 PWs)   bands (ev):

   -69.1988 -39.0865 -35.2942 -35.2798 -35.2783 -15.4684 -15.3443 -15.3424
    13.5720  15.2105  15.2561  15.8007  15.8791  15.9763  18.8093  18.8383
    19.2742  20.2071

          k = 0.2222 0.2222 0.4444 (  4788 PWs)   bands (ev):

   -69.1980 -39.0781 -35.3029 -35.2796 -35.2786 -15.5405 -15.3372 -15.3340
    14.1884  14.8272  15.3911  15.6743  16.0216  16.3835  18.3151  18.6273
    19.0634  20.5592

          k = 0.2222 0.3333 0.3333 (  4791 PWs)   bands (ev):

   -69.1977 -39.0727 -35.2961 -35.2928 -35.2782 -15.4576 -15.4496 -15.3325
    14.1080  14.9632  15.6085  15.6569  15.8759  15.9300  18.5787  18.7296
    19.5872  20.3139

          k = 0.2222 0.3333 0.4444 (  4790 PWs)   bands (ev):

   -69.1969 -39.0636 -35.3044 -35.2949 -35.2775 -15.5246 -15.4442 -15.3253
    14.2950  14.7585  15.5184  15.5651  16.1326  16.5574  18.2057  18.5102
    19.6337  20.6965

          k = 0.2222 0.4444 0.4444 (  4769 PWs)   bands (ev):

   -69.1962 -39.0541 -35.3055 -35.3050 -35.2764 -15.5148 -15.5136 -15.3185
    14.1814  14.6482  15.4205  15.4502  16.8820  16.9025  18.0403  18.2420
    19.9144  21.0509

          k = 0.3333 0.3333 0.3333 (  4797 PWs)   bands (ev):

   -69.1965 -39.0591 -35.2940 -35.2940 -35.2928 -15.4439 -15.4414 -15.4414
    14.8408  15.1324  15.5030  15.5030  15.7487  15.7487  18.4422  18.4422
    20.2352  20.2352

          k = 0.3333 0.3333 0.4444 (  4783 PWs)   bands (ev):

   -69.1958 -39.0503 -35.3037 -35.2935 -35.2927 -15.5131 -15.4361 -15.4336
    14.8622  15.0702  15.4788  15.5725  15.7993  16.2220  18.0781  18.2966
    20.2286  20.7865

          k = 0.3333 0.4444 0.4444 (  4769 PWs)   bands (ev):

   -69.1950 -39.0415 -35.3033 -35.3032 -35.2919 -15.5057 -15.5054 -15.4288
    14.9322  15.1370  15.3876  15.4789  16.1952  16.2708  17.9124  18.1056
    20.5426  21.0942

          k = 0.4444 0.4444 0.4444 (  4758 PWs)   bands (ev):

   -69.1943 -39.0333 -35.3021 -35.3019 -35.3019 -15.5001 -15.5001 -15.4995
    15.2786  15.4656  15.4656  15.7969  15.7969  15.8048  17.8841  17.8841
    21.1205  21.1205

     the Fermi energy is    17.6491 ev

!    total energy              =    -448.58658892 Ry
     estimated scf accuracy    <          9.7E-09 Ry
     smearing contrib. (-TS)   =      -0.00008109 Ry
     internal energy E=F+TS    =    -448.58650783 Ry

     The total energy is F=E-TS. E is the sum of the following terms:
     one-electron contribution =    -151.35247869 Ry
     hartree contribution      =      91.62959277 Ry
     xc contribution           =     -52.88917504 Ry
     ewald contribution        =    -259.82070277 Ry
     one-center paw contrib.   =     -76.15374411 Ry

     convergence has been achieved in  31 iterations

     negative rho (up, down):  8.033E-04 0.000E+00

     Forces acting on atoms (cartesian axes, Ry/au):

     atom    1 type  1   force =     0.00000000    0.00000000    0.00000000
     atom    2 type  2   force =     0.00000000    0.00000000    0.00000000

     Total force =     0.000000     Total SCF correction =     0.000000


     Computing stress (Cartesian axis) and pressure


     negative rho (up, down):  8.033E-04 0.000E+00
          total   stress  (Ry/bohr**3)                   (kbar)     P=       32.18
   0.00021877   0.00000000   0.00000000           32.18        0.00        0.00
   0.00000000   0.00021877   0.00000000            0.00       32.18        0.00
   0.00000000   0.00000000   0.00021877            0.00        0.00       32.18


     Writing all to output data dir ./TiFe.save/ :
     XML data file, charge density, pseudopotentials, collected wavefunctions

     init_run     :      0.58s CPU      0.61s WALL (       1 calls)
     electrons    :     13.58s CPU     13.96s WALL (       1 calls)
     forces       :      0.06s CPU      0.06s WALL (       1 calls)
     stress       :      0.28s CPU      0.29s WALL (       1 calls)

     Called by init_run:
     wfcinit      :      0.16s CPU      0.17s WALL (       1 calls)
     potinit      :      0.15s CPU      0.16s WALL (       1 calls)
     hinit0       :      0.23s CPU      0.24s WALL (       1 calls)

     Called by electrons:
     c_bands      :      9.19s CPU      9.41s WALL (      31 calls)
     sum_band     :      2.46s CPU      2.52s WALL (      31 calls)
     v_of_rho     :      0.14s CPU      0.16s WALL (      32 calls)
     newd         :      0.67s CPU      0.68s WALL (      32 calls)
     PAW_pot      :      1.11s CPU      1.15s WALL (      32 calls)
     mix_rho      :      0.03s CPU      0.03s WALL (      31 calls)

     Called by c_bands:
     init_us_2    :      0.18s CPU      0.19s WALL (    2275 calls)
     cegterg      :      8.80s CPU      9.01s WALL (    1085 calls)

     Called by *egterg:
     cdiaghg      :      0.97s CPU      0.99s WALL (    3387 calls)
     h_psi        :      7.01s CPU      7.19s WALL (    3422 calls)
     s_psi        :      0.12s CPU      0.13s WALL (    3422 calls)
     g_psi        :      0.03s CPU      0.03s WALL (    2302 calls)

     Called by h_psi:
     h_psi:calbec :      0.27s CPU      0.28s WALL (    3422 calls)
     vloc_psi     :      6.59s CPU      6.76s WALL (    3422 calls)
     add_vuspsi   :      0.13s CPU      0.13s WALL (    3422 calls)

     General routines
     calbec       :      0.41s CPU      0.42s WALL (    5102 calls)
     fft          :      0.28s CPU      0.29s WALL (     439 calls)
     ffts         :      0.11s CPU      0.11s WALL (      63 calls)
     fftw         :      7.31s CPU      7.49s WALL (  111928 calls)
     interpolate  :      0.12s CPU      0.12s WALL (      32 calls)

     Parallel routines

     PWSCF        :     14.79s CPU     16.58s WALL


   This run was terminated on:  10:51:57  28Oct2025            

=------------------------------------------------------------------------------=
   JOB DONE.
=------------------------------------------------------------------------------=
Note: The following floating-point exceptions are signalling: IEEE_UNDERFLOW_FLAG IEEE_DENORMAL
Note: The following floating-point exceptions are signalling: IEEE_UNDERFLOW_FLAG IEEE_DENORMAL
Note: The following floating-point exceptions are signalling: IEEE_UNDERFLOW_FLAG IEEE_DENORMAL
Note: The following floating-point exceptions are signalling: IEEE_UNDERFLOW_FLAG IEEE_DENORMAL
Note: The following floating-point exceptions are signalling: IEEE_UNDERFLOW_FLAG IEEE_DENORMAL
Note: The following floating-point exceptions are signalling: IEEE_UNDERFLOW_FLAG IEEE_DENORMAL
Note: The following floating-point exceptions are signalling: IEEE_UNDERFLOW_FLAG IEEE_DENORMAL
Note: The following floating-point exceptions are signalling: IEEE_UNDERFLOW_FLAG IEEE_DENORMAL
Note: The following floating-point exceptions are signalling: IEEE_UNDERFLOW_FLAG IEEE_DENORMAL
Note: The following floating-point exceptions are signalling: IEEE_UNDERFLOW_FLAG IEEE_DENORMAL
Note: The following floating-point exceptions are signalling: IEEE_UNDERFLOW_FLAG IEEE_DENORMAL
Note: The following floating-point exceptions are signalling: IEEE_UNDERFLOW_FLAG IEEE_DENORMAL
Note: The following floating-point exceptions are signalling: IEEE_UNDERFLOW_FLAG IEEE_DENORMAL
Note: The following floating-point exceptions are signalling: IEEE_UNDERFLOW_FLAG IEEE_DENORMAL
Note: The following floating-point exceptions are signalling: IEEE_UNDERFLOW_FLAG IEEE_DENORMAL
Note: The following floating-point exceptions are signalling: IEEE_UNDERFLOW_FLAG IEEE_DENORMAL
