
     Program PWSCF v.7.4 starts on 28Oct2025 at 10:55:16 

     This program is part of the open-source Quantum ESPRESSO suite
     for quantum simulation of materials; please cite
         "P. Giannozzi et al., J. Phys.:Condens. Matter 21 395502 (2009);
         "P. Giannozzi et al., J. Phys.:Condens. Matter 29 465901 (2017);
         "P. Giannozzi et al., J. Chem. Phys. 152 154105 (2020);
          URL http://www.quantum-espresso.org", 
     in publications or presentations arising from this work. More details at
     http://www.quantum-espresso.org/quote

     Parallel version (MPI & OpenMP), running on      16 processor cores
     Number of MPI processes:                16
     Threads/MPI process:                     1

     MPI processes distributed on     1 nodes
     229856 MiB available memory on the printing compute node when the environment starts

     Reading input from TiFe_ecutrho_convergence/TiFe2_factor30.in

     Current dimensions of program PWSCF are:
     Max number of different atomic species (ntypx) = 10
     Max number of k-points (npk) =  40000
     Max angular momentum in pseudopotentials (lmaxx) =  4
     file Fe.pbe-spn-kjpaw_psl.0.2.1.UPF: wavefunction(s)  3D renormalized

     IMPORTANT: XC functional enforced from input :
     Exchange-correlation= PBE
                           (   1   4   3   4   0   0   0)
     Any further DFT definition will be discarded
     Please, verify this is what you really want

     Message from routine setup:
     using ibrav=0 with symmetry is DISCOURAGED, use correct ibrav instead

     R & G space division:  proc/nbgrp/npool/nimage =      16
     Subspace diagonalization in iterative solution of the eigenvalue problem:
     a serial algorithm will be used


     Parallelization info
     --------------------
     sticks:   dense  smooth     PW     G-vecs:    dense   smooth      PW
     Min         644      85     25                49140     2399     375
     Max         645      86     26                49142     2402     378
     Sum       10309    1369    401               786247    38401    6031

     Using Slab Decomposition



     bravais-lattice index     =            0
     lattice parameter (alat)  =       5.5533  a.u.
     unit-cell volume          =     171.2590 (a.u.)^3
     number of atoms/cell      =            2
     number of atomic types    =            2
     number of electrons       =        28.00
     number of Kohn-Sham states=           18
     kinetic-energy cutoff     =     140.0000  Ry
     charge density cutoff     =    4200.0000  Ry
     scf convergence threshold =      1.0E-08
     mixing beta               =       0.7000
     number of iterations used =            8  plain     mixing
     Exchange-correlation= PBE
                           (   1   4   3   4   0   0   0)

     celldm(1)=   5.553300  celldm(2)=   0.000000  celldm(3)=   0.000000
     celldm(4)=   0.000000  celldm(5)=   0.000000  celldm(6)=   0.000000

     crystal axes: (cart. coord. in units of alat)
               a(1) = (   1.000000   0.000000   0.000000 )  
               a(2) = (   0.000000   1.000000   0.000000 )  
               a(3) = (   0.000000   0.000000   1.000000 )  

     reciprocal axes: (cart. coord. in units 2 pi/alat)
               b(1) = (  1.000000  0.000000  0.000000 )  
               b(2) = (  0.000000  1.000000  0.000000 )  
               b(3) = (  0.000000  0.000000  1.000000 )  


     PseudoPot. # 1 for Fe read from file:
     ./Fe.pbe-spn-kjpaw_psl.0.2.1.UPF
     MD5 check sum: e86618425769142926afa95317d90200
     Pseudo is Projector augmented-wave + core cor, Zval = 16.0
     Generated using "atomic" code by A. Dal Corso  v.5.0.99 svn rev. 10869
     Shape of augmentation charge: PSQ
     Using radial grid of 1191 points,  6 beta functions with: 
                l(1) =   0
                l(2) =   0
                l(3) =   1
                l(4) =   1
                l(5) =   2
                l(6) =   2
     Q(r) pseudized with 0 coefficients 


     PseudoPot. # 2 for Ti read from file:
     ./Ti_pbe_v1.4.uspp.F.UPF
     MD5 check sum: 88a00a6731bd790ddea75d31a80cb452
     Pseudo is Ultrasoft + core correction, Zval = 12.0
     Generated by new atomic code, or converted to UPF format
     Using radial grid of  851 points,  6 beta functions with: 
                l(1) =   0
                l(2) =   0
                l(3) =   1
                l(4) =   1
                l(5) =   2
                l(6) =   2
     Q(r) pseudized with  6 coefficients,  rinner =    1.000   1.000   1.000
                                                       1.000   1.000

     atomic species   valence    mass     pseudopotential
     Fe               16.00    55.84500     Fe( 1.00)
     Ti               12.00    47.86700     Ti( 1.00)

     48 Sym. Ops., with inversion, found



   Cartesian axes

     site n.     atom                  positions (alat units)
         1        Fe     tau(   1) = (   0.5000000   0.5000000   0.5000000  )
         2        Ti     tau(   2) = (   0.0000000   0.0000000   0.0000000  )

     number of k points=    35  Marzari-Vanderbilt smearing, width (Ry)=  0.0050
                       cart. coord. in units 2pi/alat
        k(    1) = (   0.0000000   0.0000000   0.0000000), wk =   0.0027435
        k(    2) = (   0.0000000   0.0000000   0.1111111), wk =   0.0164609
        k(    3) = (   0.0000000   0.0000000   0.2222222), wk =   0.0164609
        k(    4) = (   0.0000000   0.0000000   0.3333333), wk =   0.0164609
        k(    5) = (   0.0000000   0.0000000   0.4444444), wk =   0.0164609
        k(    6) = (   0.0000000   0.1111111   0.1111111), wk =   0.0329218
        k(    7) = (   0.0000000   0.1111111   0.2222222), wk =   0.0658436
        k(    8) = (   0.0000000   0.1111111   0.3333333), wk =   0.0658436
        k(    9) = (   0.0000000   0.1111111   0.4444444), wk =   0.0658436
        k(   10) = (   0.0000000   0.2222222   0.2222222), wk =   0.0329218
        k(   11) = (   0.0000000   0.2222222   0.3333333), wk =   0.0658436
        k(   12) = (   0.0000000   0.2222222   0.4444444), wk =   0.0658436
        k(   13) = (   0.0000000   0.3333333   0.3333333), wk =   0.0329218
        k(   14) = (   0.0000000   0.3333333   0.4444444), wk =   0.0658436
        k(   15) = (   0.0000000   0.4444444   0.4444444), wk =   0.0329218
        k(   16) = (   0.1111111   0.1111111   0.1111111), wk =   0.0219479
        k(   17) = (   0.1111111   0.1111111   0.2222222), wk =   0.0658436
        k(   18) = (   0.1111111   0.1111111   0.3333333), wk =   0.0658436
        k(   19) = (   0.1111111   0.1111111   0.4444444), wk =   0.0658436
        k(   20) = (   0.1111111   0.2222222   0.2222222), wk =   0.0658436
        k(   21) = (   0.1111111   0.2222222   0.3333333), wk =   0.1316872
        k(   22) = (   0.1111111   0.2222222   0.4444444), wk =   0.1316872
        k(   23) = (   0.1111111   0.3333333   0.3333333), wk =   0.0658436
        k(   24) = (   0.1111111   0.3333333   0.4444444), wk =   0.1316872
        k(   25) = (   0.1111111   0.4444444   0.4444444), wk =   0.0658436
        k(   26) = (   0.2222222   0.2222222   0.2222222), wk =   0.0219479
        k(   27) = (   0.2222222   0.2222222   0.3333333), wk =   0.0658436
        k(   28) = (   0.2222222   0.2222222   0.4444444), wk =   0.0658436
        k(   29) = (   0.2222222   0.3333333   0.3333333), wk =   0.0658436
        k(   30) = (   0.2222222   0.3333333   0.4444444), wk =   0.1316872
        k(   31) = (   0.2222222   0.4444444   0.4444444), wk =   0.0658436
        k(   32) = (   0.3333333   0.3333333   0.3333333), wk =   0.0219479
        k(   33) = (   0.3333333   0.3333333   0.4444444), wk =   0.0658436
        k(   34) = (   0.3333333   0.4444444   0.4444444), wk =   0.0658436
        k(   35) = (   0.4444444   0.4444444   0.4444444), wk =   0.0219479

     Dense  grid:   786247 G-vectors     FFT dimensions: ( 120, 120, 120)

     Smooth grid:    38401 G-vectors     FFT dimensions: (  45,  45,  45)

     Estimated max dynamical RAM per process >     193.72 MB

     Estimated total dynamical RAM >       3.03 GB

     Initial potential from superposition of free atoms

     starting charge      26.9995, renormalised to      28.0000

     negative rho (up, down):  1.379E-03 0.000E+00
     Starting wfcs are   23 randomized atomic wfcs
     Checking if some PAW data can be deallocated... 

     total cpu time spent up to now is        2.1 secs

     per-process dynamical memory:   147.6 Mb

     Self-consistent Calculation

     iteration #  1     ecut=   140.00 Ry     beta= 0.70
     Davidson diagonalization with overlap
     ethr =  1.00E-02,  avg # of iterations =  2.1

     negative rho (up, down):  9.143E-05 0.000E+00

     total cpu time spent up to now is        3.3 secs

     total energy              =    -434.70228642 Ry
     estimated scf accuracy    <      17.60696985 Ry

     iteration #  2     ecut=   140.00 Ry     beta= 0.70
     Davidson diagonalization with overlap
     ethr =  1.00E-02,  avg # of iterations =  6.1

     negative rho (up, down):  3.382E-05 0.000E+00

     total cpu time spent up to now is        4.9 secs

     total energy              =    -448.54333199 Ry
     estimated scf accuracy    <      66.39047952 Ry

     iteration #  3     ecut=   140.00 Ry     beta= 0.70
     Davidson diagonalization with overlap
     ethr =  1.00E-02,  avg # of iterations =  3.1

     negative rho (up, down):  2.309E-04 0.000E+00

     total cpu time spent up to now is        6.2 secs

     total energy              =    -448.59398377 Ry
     estimated scf accuracy    <      16.86554898 Ry

     iteration #  4     ecut=   140.00 Ry     beta= 0.70
     Davidson diagonalization with overlap
     ethr =  1.00E-02,  avg # of iterations =  2.1

     negative rho (up, down):  2.608E-04 0.000E+00

     total cpu time spent up to now is        7.4 secs

     WARNING: integrated charge=    28.00029379, expected=    28.00000000

     total energy              =    -449.11397079 Ry
     estimated scf accuracy    <       4.71193641 Ry

     iteration #  5     ecut=   140.00 Ry     beta= 0.70
     Davidson diagonalization with overlap
     ethr =  1.00E-02,  avg # of iterations =  1.0

     negative rho (up, down):  3.160E-04 0.000E+00

     total cpu time spent up to now is        8.5 secs

     WARNING: integrated charge=    27.99645720, expected=    28.00000000

     total energy              =    -449.11398883 Ry
     estimated scf accuracy    <       4.30977224 Ry

     iteration #  6     ecut=   140.00 Ry     beta= 0.70
     Davidson diagonalization with overlap
     ethr =  1.00E-02,  avg # of iterations =  1.1

     negative rho (up, down):  1.087E-03 0.000E+00

     total cpu time spent up to now is        9.7 secs

     WARNING: integrated charge=    27.98796665, expected=    28.00000000

     total energy              =    -447.91577612 Ry
     estimated scf accuracy    <       4.49601899 Ry

     iteration #  7     ecut=   140.00 Ry     beta= 0.70
     Davidson diagonalization with overlap
     ethr =  1.00E-02,  avg # of iterations =  3.4

     negative rho (up, down):  9.989E-04 0.000E+00

     total cpu time spent up to now is       10.9 secs

     WARNING: integrated charge=    27.98822560, expected=    28.00000000

     total energy              =    -448.62680841 Ry
     estimated scf accuracy    <       3.50885863 Ry

     iteration #  8     ecut=   140.00 Ry     beta= 0.70
     Davidson diagonalization with overlap
     ethr =  1.00E-02,  avg # of iterations =  1.1
     Minimization algorithm failed to find Fermi energy: reverting to bisection
     Possible cause: smearing is larger than the electronic band-gap.

     negative rho (up, down):  8.206E-04 0.000E+00

     total cpu time spent up to now is       12.0 secs

     WARNING: integrated charge=    27.98821102, expected=    28.00000000

     total energy              =    -448.45312114 Ry
     estimated scf accuracy    <       1.63803656 Ry

     iteration #  9     ecut=   140.00 Ry     beta= 0.70
     Davidson diagonalization with overlap
     ethr =  5.85E-03,  avg # of iterations =  1.6

     negative rho (up, down):  8.022E-04 0.000E+00

     total cpu time spent up to now is       13.2 secs

     WARNING: integrated charge=    27.98846596, expected=    28.00000000

     total energy              =    -448.58451208 Ry
     estimated scf accuracy    <       0.06274843 Ry

     iteration # 10     ecut=   140.00 Ry     beta= 0.70
     Davidson diagonalization with overlap
     ethr =  2.24E-04,  avg # of iterations =  3.7

     negative rho (up, down):  8.061E-04 0.000E+00

     total cpu time spent up to now is       14.4 secs

     WARNING: integrated charge=    27.98779271, expected=    28.00000000

     total energy              =    -448.60302824 Ry
     estimated scf accuracy    <       0.04116288 Ry

     iteration # 11     ecut=   140.00 Ry     beta= 0.70
     Davidson diagonalization with overlap
     ethr =  1.47E-04,  avg # of iterations =  4.1

     negative rho (up, down):  8.691E-04 0.000E+00

     total cpu time spent up to now is       15.6 secs

     WARNING: integrated charge=    27.98768055, expected=    28.00000000

     total energy              =    -448.59899413 Ry
     estimated scf accuracy    <       0.68776865 Ry

     iteration # 12     ecut=   140.00 Ry     beta= 0.70
     Davidson diagonalization with overlap
     ethr =  1.47E-04,  avg # of iterations =  1.7

     negative rho (up, down):  8.393E-04 0.000E+00

     total cpu time spent up to now is       16.7 secs

     WARNING: integrated charge=    27.98934504, expected=    28.00000000

     total energy              =    -448.58823754 Ry
     estimated scf accuracy    <       0.29181056 Ry

     iteration # 13     ecut=   140.00 Ry     beta= 0.70
     Davidson diagonalization with overlap
     ethr =  1.47E-04,  avg # of iterations =  2.9

     negative rho (up, down):  7.293E-04 0.000E+00

     total cpu time spent up to now is       17.9 secs

     WARNING: integrated charge=    28.00010404, expected=    28.00000000

     total energy              =    -448.58189304 Ry
     estimated scf accuracy    <       0.09164706 Ry

     iteration # 14     ecut=   140.00 Ry     beta= 0.70
     Davidson diagonalization with overlap
     ethr =  1.47E-04,  avg # of iterations =  1.9

     negative rho (up, down):  7.202E-04 0.000E+00

     total cpu time spent up to now is       19.1 secs

     WARNING: integrated charge=    27.99929523, expected=    28.00000000

     total energy              =    -448.58940048 Ry
     estimated scf accuracy    <       0.00305898 Ry

     iteration # 15     ecut=   140.00 Ry     beta= 0.70
     Davidson diagonalization with overlap
     ethr =  1.09E-05,  avg # of iterations =  5.1

     negative rho (up, down):  7.375E-04 0.000E+00

     total cpu time spent up to now is       20.4 secs

     WARNING: integrated charge=    28.00013864, expected=    28.00000000

     total energy              =    -448.59899751 Ry
     estimated scf accuracy    <       0.22538010 Ry

     iteration # 16     ecut=   140.00 Ry     beta= 0.70
     Davidson diagonalization with overlap
     ethr =  1.09E-05,  avg # of iterations =  2.1

     negative rho (up, down):  7.343E-04 0.000E+00

     total cpu time spent up to now is       21.6 secs

     WARNING: integrated charge=    27.99958079, expected=    28.00000000

     total energy              =    -448.60266144 Ry
     estimated scf accuracy    <       0.24352154 Ry

     iteration # 17     ecut=   140.00 Ry     beta= 0.70
     Davidson diagonalization with overlap
     ethr =  1.09E-05,  avg # of iterations =  3.6

     negative rho (up, down):  9.872E-04 0.000E+00

     total cpu time spent up to now is       23.0 secs

     WARNING: integrated charge=    27.99987598, expected=    28.00000000

     total energy              =    -448.59296759 Ry
     estimated scf accuracy    <       0.20074798 Ry

     iteration # 18     ecut=   140.00 Ry     beta= 0.70
     Davidson diagonalization with overlap
     ethr =  1.09E-05,  avg # of iterations =  4.6

     negative rho (up, down):  8.280E-04 0.000E+00

     total cpu time spent up to now is       24.4 secs

     WARNING: integrated charge=    28.00050623, expected=    28.00000000

     total energy              =    -448.58821908 Ry
     estimated scf accuracy    <       0.15176757 Ry

     iteration # 19     ecut=   140.00 Ry     beta= 0.70
     Davidson diagonalization with overlap
     ethr =  1.09E-05,  avg # of iterations =  3.7

     negative rho (up, down):  1.024E-03 0.000E+00

     total cpu time spent up to now is       25.7 secs

     WARNING: integrated charge=    27.99851061, expected=    28.00000000

     total energy              =    -448.58007357 Ry
     estimated scf accuracy    <       0.04678726 Ry

     iteration # 20     ecut=   140.00 Ry     beta= 0.70
     Davidson diagonalization with overlap
     ethr =  1.09E-05,  avg # of iterations =  5.3

     negative rho (up, down):  9.117E-04 0.000E+00

     total cpu time spent up to now is       27.1 secs

     WARNING: integrated charge=    27.99984375, expected=    28.00000000

     total energy              =    -448.58443024 Ry
     estimated scf accuracy    <       0.01870973 Ry

     iteration # 21     ecut=   140.00 Ry     beta= 0.70
     Davidson diagonalization with overlap
     ethr =  1.09E-05,  avg # of iterations =  4.0

     negative rho (up, down):  9.244E-04 0.000E+00

     total cpu time spent up to now is       28.4 secs

     WARNING: integrated charge=    28.00002905, expected=    28.00000000

     total energy              =    -448.58650317 Ry
     estimated scf accuracy    <       0.00126300 Ry

     iteration # 22     ecut=   140.00 Ry     beta= 0.70
     Davidson diagonalization with overlap
     ethr =  4.51E-06,  avg # of iterations =  1.1

     negative rho (up, down):  9.236E-04 0.000E+00

     total cpu time spent up to now is       29.5 secs

     WARNING: integrated charge=    27.99999700, expected=    28.00000000

     total energy              =    -448.58656883 Ry
     estimated scf accuracy    <       0.00004181 Ry

     iteration # 23     ecut=   140.00 Ry     beta= 0.70
     Davidson diagonalization with overlap
     ethr =  1.49E-07,  avg # of iterations =  4.1

     negative rho (up, down):  9.245E-04 0.000E+00

     total cpu time spent up to now is       30.8 secs

     WARNING: integrated charge=    27.99999072, expected=    28.00000000

     total energy              =    -448.58658318 Ry
     estimated scf accuracy    <       0.00000391 Ry

     iteration # 24     ecut=   140.00 Ry     beta= 0.70
     Davidson diagonalization with overlap
     ethr =  1.40E-08,  avg # of iterations =  3.9

     negative rho (up, down):  9.247E-04 0.000E+00

     total cpu time spent up to now is       32.0 secs

     WARNING: integrated charge=    27.99998873, expected=    28.00000000

     total energy              =    -448.58658326 Ry
     estimated scf accuracy    <       0.00000361 Ry

     iteration # 25     ecut=   140.00 Ry     beta= 0.70
     Davidson diagonalization with overlap
     ethr =  1.29E-08,  avg # of iterations =  1.0

     negative rho (up, down):  9.247E-04 0.000E+00

     total cpu time spent up to now is       33.1 secs

     End of self-consistent calculation

          k = 0.0000 0.0000 0.0000 (  4801 PWs)   bands (ev):

   -69.2040 -39.1401 -35.2659 -35.2659 -35.2659 -15.2350 -15.2350 -15.2350
    10.1529  13.8669  13.8669  16.6616  16.6616  16.6616  19.0048  19.0048
    20.9454  20.9454

          k = 0.0000 0.0000 0.1111 (  4821 PWs)   bands (ev):

   -69.2036 -39.1370 -35.2696 -35.2653 -35.2653 -15.2781 -15.2324 -15.2324
    10.4101  13.9909  13.9988  16.6431  16.6431  16.7177  18.8477  19.0624
    20.5829  20.5829

          k = 0.0000 0.0000 0.2222 (  4801 PWs)   bands (ev):

   -69.2025 -39.1290 -35.2789 -35.2639 -35.2639 -15.3862 -15.2259 -15.2259
    11.1437  14.3129  14.3487  16.6065  16.6065  16.8691  18.4027  19.1660
    19.8177  19.8177

          k = 0.0000 0.0000 0.3333 (  4789 PWs)   bands (ev):

   -69.2014 -39.1200 -35.2894 -35.2622 -35.2622 -15.5072 -15.2184 -15.2184
    12.2344  14.5613  14.8886  16.5886  16.5886  17.0616  17.7589  19.0702
    19.0904  19.0904

          k = 0.0000 0.0000 0.4444 (  4805 PWs)   bands (ev):

   -69.2006 -39.1141 -35.2963 -35.2612 -35.2612 -15.5851 -15.2136 -15.2136
    13.4363  14.3574  15.4424  16.5971  16.5971  17.1345  17.2030  18.6548
    18.6548  18.6888

          k = 0.0000 0.1111 0.1111 (  4805 PWs)   bands (ev):

   -69.2032 -39.1335 -35.2710 -35.2675 -35.2648 -15.2794 -15.2705 -15.2297
    10.6595  14.1028  14.1346  16.5213  16.6077  16.8507  18.8368  19.0208
    20.2150  20.2233

          k = 0.0000 0.1111 0.2222 (  4791 PWs)   bands (ev):

   -69.2021 -39.1249 -35.2798 -35.2678 -35.2633 -15.3819 -15.2665 -15.2227
    11.3672  14.3909  14.4888  16.4128  16.5287  16.9762  18.5224  19.1069
    19.5193  19.6223

          k = 0.0000 0.1111 0.3333 (  4791 PWs)   bands (ev):

   -69.2010 -39.1151 -35.2906 -35.2672 -35.2617 -15.5010 -15.2576 -15.2148
    12.4071  14.6303  14.9695  16.3814  16.4518  16.9785  18.0222  18.7292
    19.2001  19.2934

          k = 0.0000 0.1111 0.4444 (  4805 PWs)   bands (ev):

   -69.2002 -39.1087 -35.2976 -35.2667 -35.2607 -15.5778 -15.2517 -15.2096
    13.5283  14.4160  15.4511  16.3730  16.4281  16.8601  17.6155  18.3324
    19.0627  19.1224

          k = 0.0000 0.2222 0.2222 (  4791 PWs)   bands (ev):

   -69.2011 -39.1145 -35.2838 -35.2757 -35.2620 -15.3799 -15.3594 -15.2146
    11.9851  14.5179  14.9059  16.1681  16.3908  16.9254  18.6824  18.9282
    19.0778  19.4451

          k = 0.0000 0.2222 0.3333 (  4797 PWs)   bands (ev):

   -69.2000 -39.1026 -35.2936 -35.2795 -35.2605 -15.4855 -15.3556 -15.2054
    12.8343  14.5596  15.4149  16.0317  16.3567  16.6323  18.4526  18.5682
    19.2728  19.5516

          k = 0.0000 0.2222 0.4444 (  4798 PWs)   bands (ev):

   -69.1992 -39.0948 -35.3011 -35.2808 -35.2595 -15.5592 -15.3473 -15.1994
    13.6334  14.3474  15.7687  16.0521  16.3091  16.5255  18.1623  18.3869
    19.4421  19.7738

          k = 0.0000 0.3333 0.3333 (  4773 PWs)   bands (ev):

   -69.1988 -39.0883 -35.2984 -35.2921 -35.2590 -15.4744 -15.4588 -15.1948
    13.2771  14.3425  15.7745  16.0819  16.1901  16.5975  18.4987  18.9574
    19.1306  20.0110

          k = 0.0000 0.3333 0.4444 (  4797 PWs)   bands (ev):

   -69.1980 -39.0790 -35.3051 -35.2968 -35.2581 -15.5379 -15.4546 -15.1878
    13.5432  14.1321  15.7016  15.8513  16.5380  17.2528  18.2580  19.0239
    19.3900  20.4029

          k = 0.0000 0.4444 0.4444 (  4768 PWs)   bands (ev):

   -69.1973 -39.0686 -35.3080 -35.3070 -35.2572 -15.5251 -15.5227 -15.1802
    13.4111  13.9880  15.5241  15.5748  17.4121  17.8951  18.6534  18.8991
    19.4004  20.7937

          k = 0.1111 0.1111 0.1111 (  4800 PWs)   bands (ev):

   -69.2028 -39.1299 -35.2704 -35.2704 -35.2659 -15.2793 -15.2679 -15.2679
    10.9028  14.2399  14.2399  16.4827  16.4827  16.9330  18.9195  18.9195
    19.6876  20.5514

          k = 0.1111 0.1111 0.2222 (  4798 PWs)   bands (ev):

   -69.2017 -39.1207 -35.2801 -35.2689 -35.2663 -15.3776 -15.2651 -15.2611
    11.5900  14.5392  14.5602  16.3347  16.3839  16.9341  18.6340  19.0557
    19.2937  19.7874

          k = 0.1111 0.1111 0.3333 (  4800 PWs)   bands (ev):

   -69.2006 -39.1102 -35.2914 -35.2672 -35.2664 -15.4951 -15.2543 -15.2535
    12.5887  14.7778  14.9750  16.2513  16.3096  16.7824  18.2367  18.8270
    19.0887  19.4700

          k = 0.1111 0.1111 0.4444 (  4800 PWs)   bands (ev):

   -69.1998 -39.1034 -35.2987 -35.2664 -35.2660 -15.5710 -15.2485 -15.2471
    13.6446  14.5218  15.4013  16.0884  16.4643  16.6558  17.9101  18.4428
    18.6930  19.7761

          k = 0.1111 0.2222 0.2222 (  4790 PWs)   bands (ev):

   -69.2007 -39.1100 -35.2832 -35.2765 -35.2665 -15.3745 -15.3566 -15.2544
    12.2043  14.6854  14.9562  16.1098  16.2318  16.6657  18.7811  19.0557
    19.1793  19.5659

          k = 0.1111 0.2222 0.3333 (  4796 PWs)   bands (ev):

   -69.1996 -39.0978 -35.2936 -35.2794 -35.2657 -15.4804 -15.3519 -15.2445
    13.0402  14.7477  15.3798  15.9602  16.1843  16.3785  18.6606  18.7095
    19.1641  19.8261

          k = 0.1111 0.2222 0.4444 (  4800 PWs)   bands (ev):

   -69.1988 -39.0898 -35.3015 -35.2803 -35.2650 -15.5536 -15.3438 -15.2380
    13.8090  14.5242  15.5937  15.8929  16.2208  16.4969  18.2712  18.5496
    18.9342  20.4576

          k = 0.1111 0.3333 0.3333 (  4787 PWs)   bands (ev):

   -69.1984 -39.0836 -35.2977 -35.2922 -35.2644 -15.4694 -15.4560 -15.2338
    13.4983  14.5254  15.7245  16.0003  16.0456  16.3676  18.5348  19.0230
    19.1248  20.3732

          k = 0.1111 0.3333 0.4444 (  4784 PWs)   bands (ev):

   -69.1977 -39.0744 -35.3048 -35.2962 -35.2635 -15.5339 -15.4514 -15.2267
    13.7460  14.3195  15.6447  15.7441  16.4459  17.0250  18.2492  18.9234
    19.2088  20.7261

          k = 0.1111 0.4444 0.4444 (  4772 PWs)   bands (ev):

   -69.1969 -39.0642 -35.3072 -35.3064 -35.2626 -15.5220 -15.5199 -15.2194
    13.6146  14.1773  15.4906  15.5316  17.3098  17.6414  18.3854  18.4778
    19.5194  20.9970

          k = 0.2222 0.2222 0.2222 (  4800 PWs)   bands (ev):

   -69.1997 -39.0986 -35.2815 -35.2815 -35.2751 -15.3653 -15.3496 -15.3496
    12.8008  15.0892  15.0892  15.9658  15.9658  16.1368  18.9760  18.9760
    19.7336  19.8020

          k = 0.2222 0.2222 0.3333 (  4793 PWs)   bands (ev):

   -69.1986 -39.0856 -35.2940 -35.2796 -35.2781 -15.4675 -15.3435 -15.3416
    13.5721  15.2107  15.2563  15.8009  15.8793  15.9765  18.8097  18.8386
    19.2747  20.2076

          k = 0.2222 0.2222 0.4444 (  4788 PWs)   bands (ev):

   -69.1978 -39.0771 -35.3027 -35.2794 -35.2784 -15.5397 -15.3363 -15.3332
    14.1885  14.8273  15.3913  15.6745  16.0217  16.3837  18.3153  18.6277
    19.0639  20.5598

          k = 0.2222 0.3333 0.3333 (  4791 PWs)   bands (ev):

   -69.1974 -39.0718 -35.2959 -35.2926 -35.2780 -15.4567 -15.4488 -15.3316
    14.1081  14.9634  15.6087  15.6570  15.8761  15.9302  18.5790  18.7299
    19.5877  20.3145

          k = 0.2222 0.3333 0.4444 (  4790 PWs)   bands (ev):

   -69.1967 -39.0627 -35.3042 -35.2947 -35.2773 -15.5238 -15.4433 -15.3244
    14.2952  14.7587  15.5186  15.5652  16.1327  16.5576  18.2059  18.5105
    19.6342  20.6971

          k = 0.2222 0.4444 0.4444 (  4769 PWs)   bands (ev):

   -69.1959 -39.0532 -35.3053 -35.3048 -35.2762 -15.5140 -15.5127 -15.3177
    14.1816  14.6484  15.4207  15.4504  16.8821  16.9027  18.0405  18.2422
    19.9149  21.0516

          k = 0.3333 0.3333 0.3333 (  4797 PWs)   bands (ev):

   -69.1963 -39.0582 -35.2938 -35.2938 -35.2926 -15.4431 -15.4406 -15.4406
    14.8409  15.1326  15.5032  15.5032  15.7489  15.7489  18.4425  18.4425
    20.2359  20.2359

          k = 0.3333 0.3333 0.4444 (  4783 PWs)   bands (ev):

   -69.1955 -39.0493 -35.3035 -35.2933 -35.2925 -15.5122 -15.4352 -15.4328
    14.8624  15.0704  15.4790  15.5727  15.7995  16.2223  18.0783  18.2969
    20.2292  20.7872

          k = 0.3333 0.4444 0.4444 (  4769 PWs)   bands (ev):

   -69.1948 -39.0406 -35.3031 -35.3030 -35.2917 -15.5048 -15.5046 -15.4279
    14.9324  15.1372  15.3878  15.4791  16.1954  16.2710  17.9126  18.1058
    20.5432  21.0949

          k = 0.4444 0.4444 0.4444 (  4758 PWs)   bands (ev):

   -69.1941 -39.0324 -35.3019 -35.3017 -35.3017 -15.4993 -15.4993 -15.4987
    15.2788  15.4658  15.4658  15.7971  15.7971  15.8051  17.8843  17.8843
    21.1213  21.1213

     the Fermi energy is    17.6493 ev

!    total energy              =    -448.58658351 Ry
     estimated scf accuracy    <          7.5E-09 Ry
     smearing contrib. (-TS)   =      -0.00008128 Ry
     internal energy E=F+TS    =    -448.58650223 Ry

     The total energy is F=E-TS. E is the sum of the following terms:
     one-electron contribution =    -151.35203694 Ry
     hartree contribution      =      91.62901264 Ry
     xc contribution           =     -52.88903210 Ry
     ewald contribution        =    -259.82070277 Ry
     one-center paw contrib.   =     -76.15374306 Ry

     convergence has been achieved in  25 iterations

     negative rho (up, down):  9.247E-04 0.000E+00

     Forces acting on atoms (cartesian axes, Ry/au):

     atom    1 type  1   force =     0.00000000    0.00000000    0.00000000
     atom    2 type  2   force =     0.00000000    0.00000000    0.00000000

     Total force =     0.000000     Total SCF correction =     0.000000


     Computing stress (Cartesian axis) and pressure


     negative rho (up, down):  9.247E-04 0.000E+00
          total   stress  (Ry/bohr**3)                   (kbar)     P=       31.07
   0.00021119   0.00000000   0.00000000           31.07        0.00        0.00
   0.00000000   0.00021119   0.00000000            0.00       31.07        0.00
   0.00000000   0.00000000   0.00021119            0.00        0.00       31.07


     Writing all to output data dir ./TiFe.save/ :
     XML data file, charge density, pseudopotentials, collected wavefunctions

     init_run     :      1.78s CPU      1.87s WALL (       1 calls)
     electrons    :     28.97s CPU     31.33s WALL (       1 calls)
     forces       :      0.44s CPU      0.48s WALL (       1 calls)
     stress       :      2.38s CPU      2.48s WALL (       1 calls)

     Called by init_run:
     wfcinit      :      0.21s CPU      0.23s WALL (       1 calls)
     potinit      :      0.21s CPU      0.23s WALL (       1 calls)
     hinit0       :      0.91s CPU      0.92s WALL (       1 calls)

     Called by electrons:
     c_bands      :     11.00s CPU     11.27s WALL (      25 calls)
     sum_band     :      9.47s CPU     10.32s WALL (      25 calls)
     v_of_rho     :      1.43s CPU      1.60s WALL (      26 calls)
     newd         :      6.16s CPU      6.92s WALL (      26 calls)
     PAW_pot      :      0.94s CPU      0.97s WALL (      26 calls)
     mix_rho      :      0.13s CPU      0.16s WALL (      25 calls)

     Called by c_bands:
     init_us_2    :      0.15s CPU      0.15s WALL (    1855 calls)
     cegterg      :     10.69s CPU     10.94s WALL (     875 calls)

     Called by *egterg:
     cdiaghg      :      1.04s CPU      1.07s WALL (    3488 calls)
     h_psi        :      8.88s CPU      9.10s WALL (    3523 calls)
     s_psi        :      0.12s CPU      0.12s WALL (    3523 calls)
     g_psi        :      0.03s CPU      0.03s WALL (    2613 calls)

     Called by h_psi:
     h_psi:calbec :      0.28s CPU      0.29s WALL (    3523 calls)
     vloc_psi     :      8.46s CPU      8.67s WALL (    3523 calls)
     add_vuspsi   :      0.12s CPU      0.12s WALL (    3523 calls)

     General routines
     calbec       :      0.39s CPU      0.40s WALL (    4993 calls)
     fft          :      1.75s CPU      2.02s WALL (     361 calls)
     ffts         :      0.12s CPU      0.12s WALL (      51 calls)
     fftw         :      7.75s CPU      7.92s WALL (   98342 calls)
     interpolate  :      0.18s CPU      0.20s WALL (      26 calls)

     Parallel routines

     PWSCF        :     33.86s CPU     38.07s WALL


   This run was terminated on:  10:55:54  28Oct2025            

=------------------------------------------------------------------------------=
   JOB DONE.
=------------------------------------------------------------------------------=
Note: The following floating-point exceptions are signalling: IEEE_UNDERFLOW_FLAG IEEE_DENORMAL
Note: The following floating-point exceptions are signalling: IEEE_UNDERFLOW_FLAG IEEE_DENORMAL
Note: The following floating-point exceptions are signalling: IEEE_UNDERFLOW_FLAG IEEE_DENORMAL
Note: The following floating-point exceptions are signalling: IEEE_UNDERFLOW_FLAG IEEE_DENORMAL
Note: The following floating-point exceptions are signalling: IEEE_UNDERFLOW_FLAG IEEE_DENORMAL
Note: The following floating-point exceptions are signalling: IEEE_UNDERFLOW_FLAG IEEE_DENORMAL
Note: The following floating-point exceptions are signalling: IEEE_UNDERFLOW_FLAG IEEE_DENORMAL
Note: The following floating-point exceptions are signalling: IEEE_UNDERFLOW_FLAG IEEE_DENORMAL
Note: The following floating-point exceptions are signalling: IEEE_UNDERFLOW_FLAG IEEE_DENORMAL
Note: The following floating-point exceptions are signalling: IEEE_UNDERFLOW_FLAG IEEE_DENORMAL
Note: The following floating-point exceptions are signalling: IEEE_UNDERFLOW_FLAG IEEE_DENORMAL
Note: The following floating-point exceptions are signalling: IEEE_UNDERFLOW_FLAG IEEE_DENORMAL
Note: The following floating-point exceptions are signalling: IEEE_UNDERFLOW_FLAG IEEE_DENORMAL
Note: The following floating-point exceptions are signalling: IEEE_UNDERFLOW_FLAG IEEE_DENORMAL
Note: The following floating-point exceptions are signalling: IEEE_UNDERFLOW_FLAG IEEE_DENORMAL
Note: The following floating-point exceptions are signalling: IEEE_UNDERFLOW_FLAG IEEE_DENORMAL
