
     Program PWSCF v.7.4 starts on 28Oct2025 at 10:51:11 

     This program is part of the open-source Quantum ESPRESSO suite
     for quantum simulation of materials; please cite
         "P. Giannozzi et al., J. Phys.:Condens. Matter 21 395502 (2009);
         "P. Giannozzi et al., J. Phys.:Condens. Matter 29 465901 (2017);
         "P. Giannozzi et al., J. Chem. Phys. 152 154105 (2020);
          URL http://www.quantum-espresso.org", 
     in publications or presentations arising from this work. More details at
     http://www.quantum-espresso.org/quote

     Parallel version (MPI & OpenMP), running on      16 processor cores
     Number of MPI processes:                16
     Threads/MPI process:                     1

     MPI processes distributed on     1 nodes
     230604 MiB available memory on the printing compute node when the environment starts

     Reading input from TiFe_ecutrho_convergence/TiFe2_factor4.in

     Current dimensions of program PWSCF are:
     Max number of different atomic species (ntypx) = 10
     Max number of k-points (npk) =  40000
     Max angular momentum in pseudopotentials (lmaxx) =  4
     file Fe.pbe-spn-kjpaw_psl.0.2.1.UPF: wavefunction(s)  3D renormalized

     IMPORTANT: XC functional enforced from input :
     Exchange-correlation= PBE
                           (   1   4   3   4   0   0   0)
     Any further DFT definition will be discarded
     Please, verify this is what you really want

     Message from routine setup:
     using ibrav=0 with symmetry is DISCOURAGED, use correct ibrav instead

     R & G space division:  proc/nbgrp/npool/nimage =      16
     Subspace diagonalization in iterative solution of the eigenvalue problem:
     a serial algorithm will be used


     Parallelization info
     --------------------
     sticks:   dense  smooth     PW     G-vecs:    dense   smooth      PW
     Min          85      85     25                 2399     2399     375
     Max          86      86     26                 2402     2402     378
     Sum        1369    1369    401                38401    38401    6031

     Using Slab Decomposition



     bravais-lattice index     =            0
     lattice parameter (alat)  =       5.5533  a.u.
     unit-cell volume          =     171.2590 (a.u.)^3
     number of atoms/cell      =            2
     number of atomic types    =            2
     number of electrons       =        28.00
     number of Kohn-Sham states=           18
     kinetic-energy cutoff     =     140.0000  Ry
     charge density cutoff     =     560.0000  Ry
     scf convergence threshold =      1.0E-08
     mixing beta               =       0.7000
     number of iterations used =            8  plain     mixing
     Exchange-correlation= PBE
                           (   1   4   3   4   0   0   0)

     celldm(1)=   5.553300  celldm(2)=   0.000000  celldm(3)=   0.000000
     celldm(4)=   0.000000  celldm(5)=   0.000000  celldm(6)=   0.000000

     crystal axes: (cart. coord. in units of alat)
               a(1) = (   1.000000   0.000000   0.000000 )  
               a(2) = (   0.000000   1.000000   0.000000 )  
               a(3) = (   0.000000   0.000000   1.000000 )  

     reciprocal axes: (cart. coord. in units 2 pi/alat)
               b(1) = (  1.000000  0.000000  0.000000 )  
               b(2) = (  0.000000  1.000000  0.000000 )  
               b(3) = (  0.000000  0.000000  1.000000 )  


     PseudoPot. # 1 for Fe read from file:
     ./Fe.pbe-spn-kjpaw_psl.0.2.1.UPF
     MD5 check sum: e86618425769142926afa95317d90200
     Pseudo is Projector augmented-wave + core cor, Zval = 16.0
     Generated using "atomic" code by A. Dal Corso  v.5.0.99 svn rev. 10869
     Shape of augmentation charge: PSQ
     Using radial grid of 1191 points,  6 beta functions with: 
                l(1) =   0
                l(2) =   0
                l(3) =   1
                l(4) =   1
                l(5) =   2
                l(6) =   2
     Q(r) pseudized with 0 coefficients 


     PseudoPot. # 2 for Ti read from file:
     ./Ti_pbe_v1.4.uspp.F.UPF
     MD5 check sum: 88a00a6731bd790ddea75d31a80cb452
     Pseudo is Ultrasoft + core correction, Zval = 12.0
     Generated by new atomic code, or converted to UPF format
     Using radial grid of  851 points,  6 beta functions with: 
                l(1) =   0
                l(2) =   0
                l(3) =   1
                l(4) =   1
                l(5) =   2
                l(6) =   2
     Q(r) pseudized with  6 coefficients,  rinner =    1.000   1.000   1.000
                                                       1.000   1.000

     atomic species   valence    mass     pseudopotential
     Fe               16.00    55.84500     Fe( 1.00)
     Ti               12.00    47.86700     Ti( 1.00)

     48 Sym. Ops., with inversion, found



   Cartesian axes

     site n.     atom                  positions (alat units)
         1        Fe     tau(   1) = (   0.5000000   0.5000000   0.5000000  )
         2        Ti     tau(   2) = (   0.0000000   0.0000000   0.0000000  )

     number of k points=    35  Marzari-Vanderbilt smearing, width (Ry)=  0.0050
                       cart. coord. in units 2pi/alat
        k(    1) = (   0.0000000   0.0000000   0.0000000), wk =   0.0027435
        k(    2) = (   0.0000000   0.0000000   0.1111111), wk =   0.0164609
        k(    3) = (   0.0000000   0.0000000   0.2222222), wk =   0.0164609
        k(    4) = (   0.0000000   0.0000000   0.3333333), wk =   0.0164609
        k(    5) = (   0.0000000   0.0000000   0.4444444), wk =   0.0164609
        k(    6) = (   0.0000000   0.1111111   0.1111111), wk =   0.0329218
        k(    7) = (   0.0000000   0.1111111   0.2222222), wk =   0.0658436
        k(    8) = (   0.0000000   0.1111111   0.3333333), wk =   0.0658436
        k(    9) = (   0.0000000   0.1111111   0.4444444), wk =   0.0658436
        k(   10) = (   0.0000000   0.2222222   0.2222222), wk =   0.0329218
        k(   11) = (   0.0000000   0.2222222   0.3333333), wk =   0.0658436
        k(   12) = (   0.0000000   0.2222222   0.4444444), wk =   0.0658436
        k(   13) = (   0.0000000   0.3333333   0.3333333), wk =   0.0329218
        k(   14) = (   0.0000000   0.3333333   0.4444444), wk =   0.0658436
        k(   15) = (   0.0000000   0.4444444   0.4444444), wk =   0.0329218
        k(   16) = (   0.1111111   0.1111111   0.1111111), wk =   0.0219479
        k(   17) = (   0.1111111   0.1111111   0.2222222), wk =   0.0658436
        k(   18) = (   0.1111111   0.1111111   0.3333333), wk =   0.0658436
        k(   19) = (   0.1111111   0.1111111   0.4444444), wk =   0.0658436
        k(   20) = (   0.1111111   0.2222222   0.2222222), wk =   0.0658436
        k(   21) = (   0.1111111   0.2222222   0.3333333), wk =   0.1316872
        k(   22) = (   0.1111111   0.2222222   0.4444444), wk =   0.1316872
        k(   23) = (   0.1111111   0.3333333   0.3333333), wk =   0.0658436
        k(   24) = (   0.1111111   0.3333333   0.4444444), wk =   0.1316872
        k(   25) = (   0.1111111   0.4444444   0.4444444), wk =   0.0658436
        k(   26) = (   0.2222222   0.2222222   0.2222222), wk =   0.0219479
        k(   27) = (   0.2222222   0.2222222   0.3333333), wk =   0.0658436
        k(   28) = (   0.2222222   0.2222222   0.4444444), wk =   0.0658436
        k(   29) = (   0.2222222   0.3333333   0.3333333), wk =   0.0658436
        k(   30) = (   0.2222222   0.3333333   0.4444444), wk =   0.1316872
        k(   31) = (   0.2222222   0.4444444   0.4444444), wk =   0.0658436
        k(   32) = (   0.3333333   0.3333333   0.3333333), wk =   0.0219479
        k(   33) = (   0.3333333   0.3333333   0.4444444), wk =   0.0658436
        k(   34) = (   0.3333333   0.4444444   0.4444444), wk =   0.0658436
        k(   35) = (   0.4444444   0.4444444   0.4444444), wk =   0.0219479

     Dense  grid:    38401 G-vectors     FFT dimensions: (  45,  45,  45)

     Estimated max dynamical RAM per process >      15.77 MB

     Estimated total dynamical RAM >     252.38 MB

     Check: negative core charge=   -0.000028

     Initial potential from superposition of free atoms

     starting charge      26.9995, renormalised to      28.0000

     negative rho (up, down):  1.319E-03 0.000E+00
     Starting wfcs are   23 randomized atomic wfcs
     Checking if some PAW data can be deallocated... 

     total cpu time spent up to now is        0.6 secs

     per-process dynamical memory:   122.1 Mb

     Self-consistent Calculation

     iteration #  1     ecut=   140.00 Ry     beta= 0.70
     Davidson diagonalization with overlap
     ethr =  1.00E-02,  avg # of iterations =  2.1

     total cpu time spent up to now is        1.1 secs

     WARNING: integrated charge=    28.00077031, expected=    28.00000000

     total energy              =    -434.87427385 Ry
     estimated scf accuracy    <      17.48298374 Ry

     iteration #  2     ecut=   140.00 Ry     beta= 0.70
     Davidson diagonalization with overlap
     ethr =  1.00E-02,  avg # of iterations =  6.1

     negative rho (up, down):  9.521E-05 0.000E+00

     total cpu time spent up to now is        1.8 secs

     WARNING: integrated charge=    28.00058766, expected=    28.00000000

     total energy              =    -448.52117872 Ry
     estimated scf accuracy    <      66.12396240 Ry

     iteration #  3     ecut=   140.00 Ry     beta= 0.70
     Davidson diagonalization with overlap
     ethr =  1.00E-02,  avg # of iterations =  3.1

     negative rho (up, down):  2.073E-04 0.000E+00

     total cpu time spent up to now is        2.3 secs

     WARNING: integrated charge=    28.00046877, expected=    28.00000000

     total energy              =    -448.59450170 Ry
     estimated scf accuracy    <      16.78594496 Ry

     iteration #  4     ecut=   140.00 Ry     beta= 0.70
     Davidson diagonalization with overlap
     ethr =  1.00E-02,  avg # of iterations =  2.2

     negative rho (up, down):  2.169E-04 0.000E+00

     total cpu time spent up to now is        2.8 secs

     WARNING: integrated charge=    28.00045579, expected=    28.00000000

     total energy              =    -449.11480560 Ry
     estimated scf accuracy    <       4.69957803 Ry

     iteration #  5     ecut=   140.00 Ry     beta= 0.70
     Davidson diagonalization with overlap
     ethr =  1.00E-02,  avg # of iterations =  1.0

     negative rho (up, down):  2.332E-04 0.000E+00

     total cpu time spent up to now is        3.1 secs

     WARNING: integrated charge=    28.00042505, expected=    28.00000000

     total energy              =    -449.11069940 Ry
     estimated scf accuracy    <       4.29794109 Ry

     iteration #  6     ecut=   140.00 Ry     beta= 0.70
     Davidson diagonalization with overlap
     ethr =  1.00E-02,  avg # of iterations =  1.1

     negative rho (up, down):  1.097E-03 0.000E+00

     total cpu time spent up to now is        3.5 secs

     WARNING: integrated charge=    28.00020588, expected=    28.00000000

     total energy              =    -447.87756145 Ry
     estimated scf accuracy    <       4.56762139 Ry

     iteration #  7     ecut=   140.00 Ry     beta= 0.70
     Davidson diagonalization with overlap
     ethr =  1.00E-02,  avg # of iterations =  3.4

     negative rho (up, down):  9.834E-04 0.000E+00

     total cpu time spent up to now is        3.9 secs

     WARNING: integrated charge=    28.00018724, expected=    28.00000000

     total energy              =    -448.60012789 Ry
     estimated scf accuracy    <       4.35402298 Ry

     iteration #  8     ecut=   140.00 Ry     beta= 0.70
     Davidson diagonalization with overlap
     ethr =  1.00E-02,  avg # of iterations =  1.0

     negative rho (up, down):  6.804E-04 0.000E+00

     total cpu time spent up to now is        4.3 secs

     WARNING: integrated charge=    28.00013945, expected=    28.00000000

     total energy              =    -448.38952436 Ry
     estimated scf accuracy    <       1.54736019 Ry

     iteration #  9     ecut=   140.00 Ry     beta= 0.70
     Davidson diagonalization with overlap
     ethr =  5.53E-03,  avg # of iterations =  1.9

     negative rho (up, down):  6.777E-04 0.000E+00

     total cpu time spent up to now is        4.7 secs

     WARNING: integrated charge=    28.00013547, expected=    28.00000000

     total energy              =    -448.62347417 Ry
     estimated scf accuracy    <       0.47195623 Ry

     iteration # 10     ecut=   140.00 Ry     beta= 0.70
     Davidson diagonalization with overlap
     ethr =  1.69E-03,  avg # of iterations =  1.2

     negative rho (up, down):  6.209E-04 0.000E+00

     total cpu time spent up to now is        5.0 secs

     WARNING: integrated charge=    28.00010060, expected=    28.00000000

     total energy              =    -448.67570371 Ry
     estimated scf accuracy    <       0.55565525 Ry

     iteration # 11     ecut=   140.00 Ry     beta= 0.70
     Davidson diagonalization with overlap
     ethr =  1.69E-03,  avg # of iterations =  1.2

     negative rho (up, down):  6.004E-04 0.000E+00

     total cpu time spent up to now is        5.4 secs

     WARNING: integrated charge=    28.00002206, expected=    28.00000000

     total energy              =    -448.65981288 Ry
     estimated scf accuracy    <       1.33458287 Ry

     iteration # 12     ecut=   140.00 Ry     beta= 0.70
     Davidson diagonalization with overlap
     ethr =  1.69E-03,  avg # of iterations =  1.0

     negative rho (up, down):  6.602E-04 0.000E+00

     total cpu time spent up to now is        5.8 secs

     WARNING: integrated charge=    28.00002328, expected=    28.00000000

     total energy              =    -448.62950409 Ry
     estimated scf accuracy    <       0.90408780 Ry

     iteration # 13     ecut=   140.00 Ry     beta= 0.70
     Davidson diagonalization with overlap
     ethr =  1.69E-03,  avg # of iterations =  1.0

     negative rho (up, down):  6.532E-04 0.000E+00

     total cpu time spent up to now is        6.1 secs

     WARNING: integrated charge=    27.99999225, expected=    28.00000000

     total energy              =    -448.62357924 Ry
     estimated scf accuracy    <       0.48338644 Ry

     iteration # 14     ecut=   140.00 Ry     beta= 0.70
     Davidson diagonalization with overlap
     ethr =  1.69E-03,  avg # of iterations =  1.0

     negative rho (up, down):  6.697E-04 0.000E+00

     total cpu time spent up to now is        6.5 secs

     WARNING: integrated charge=    27.99999346, expected=    28.00000000

     total energy              =    -448.63483008 Ry
     estimated scf accuracy    <       0.31699585 Ry

     iteration # 15     ecut=   140.00 Ry     beta= 0.70
     Davidson diagonalization with overlap
     ethr =  1.13E-03,  avg # of iterations =  1.0

     negative rho (up, down):  6.538E-04 0.000E+00

     total cpu time spent up to now is        6.9 secs

     WARNING: integrated charge=    27.99998849, expected=    28.00000000

     total energy              =    -448.63699355 Ry
     estimated scf accuracy    <       0.42539268 Ry

     iteration # 16     ecut=   140.00 Ry     beta= 0.70
     Davidson diagonalization with overlap
     ethr =  1.13E-03,  avg # of iterations =  1.0

     negative rho (up, down):  6.800E-04 0.000E+00

     total cpu time spent up to now is        7.2 secs

     WARNING: integrated charge=    27.99999121, expected=    28.00000000

     total energy              =    -448.63589566 Ry
     estimated scf accuracy    <       0.39098799 Ry

     iteration # 17     ecut=   140.00 Ry     beta= 0.70
     Davidson diagonalization with overlap
     ethr =  1.13E-03,  avg # of iterations =  1.0

     negative rho (up, down):  9.040E-04 0.000E+00

     total cpu time spent up to now is        7.6 secs

     WARNING: integrated charge=    27.99997331, expected=    28.00000000

     total energy              =    -448.58368813 Ry
     estimated scf accuracy    <       0.43820618 Ry

     iteration # 18     ecut=   140.00 Ry     beta= 0.70
     Davidson diagonalization with overlap
     ethr =  1.13E-03,  avg # of iterations =  1.6

     negative rho (up, down):  9.137E-04 0.000E+00

     total cpu time spent up to now is        8.0 secs

     WARNING: integrated charge=    28.00000862, expected=    28.00000000

     total energy              =    -448.57750791 Ry
     estimated scf accuracy    <       0.09700366 Ry

     iteration # 19     ecut=   140.00 Ry     beta= 0.70
     Davidson diagonalization with overlap
     ethr =  3.46E-04,  avg # of iterations =  2.3

     negative rho (up, down):  8.967E-04 0.000E+00

     total cpu time spent up to now is        8.4 secs

     WARNING: integrated charge=    27.99999365, expected=    28.00000000

     total energy              =    -448.58559852 Ry
     estimated scf accuracy    <       0.00346644 Ry

     iteration # 20     ecut=   140.00 Ry     beta= 0.70
     Davidson diagonalization with overlap
     ethr =  1.24E-05,  avg # of iterations =  4.9

     negative rho (up, down):  9.106E-04 0.000E+00

     total cpu time spent up to now is        8.9 secs

     WARNING: integrated charge=    27.99999638, expected=    28.00000000

     total energy              =    -448.58640262 Ry
     estimated scf accuracy    <       0.00198781 Ry

     iteration # 21     ecut=   140.00 Ry     beta= 0.70
     Davidson diagonalization with overlap
     ethr =  7.10E-06,  avg # of iterations =  1.9

     negative rho (up, down):  9.108E-04 0.000E+00

     total cpu time spent up to now is        9.3 secs

     total energy              =    -448.58659101 Ry
     estimated scf accuracy    <       0.00020162 Ry

     iteration # 22     ecut=   140.00 Ry     beta= 0.70
     Davidson diagonalization with overlap
     ethr =  7.20E-07,  avg # of iterations =  3.9

     negative rho (up, down):  9.129E-04 0.000E+00

     total cpu time spent up to now is        9.7 secs

     total energy              =    -448.58662975 Ry
     estimated scf accuracy    <       0.00001726 Ry

     iteration # 23     ecut=   140.00 Ry     beta= 0.70
     Davidson diagonalization with overlap
     ethr =  6.16E-08,  avg # of iterations =  3.6

     negative rho (up, down):  9.127E-04 0.000E+00

     total cpu time spent up to now is       10.2 secs

     total energy              =    -448.58663195 Ry
     estimated scf accuracy    <       0.00000743 Ry

     iteration # 24     ecut=   140.00 Ry     beta= 0.70
     Davidson diagonalization with overlap
     ethr =  2.65E-08,  avg # of iterations =  2.1

     negative rho (up, down):  9.134E-04 0.000E+00

     total cpu time spent up to now is       10.6 secs

     total energy              =    -448.58663303 Ry
     estimated scf accuracy    <       0.00000101 Ry

     iteration # 25     ecut=   140.00 Ry     beta= 0.70
     Davidson diagonalization with overlap
     ethr =  3.60E-09,  avg # of iterations =  3.1

     negative rho (up, down):  9.134E-04 0.000E+00

     total cpu time spent up to now is       11.1 secs

     total energy              =    -448.58663333 Ry
     estimated scf accuracy    <       0.00000036 Ry

     iteration # 26     ecut=   140.00 Ry     beta= 0.70
     Davidson diagonalization with overlap
     ethr =  1.29E-09,  avg # of iterations =  2.2

     negative rho (up, down):  9.134E-04 0.000E+00

     total cpu time spent up to now is       11.5 secs

     total energy              =    -448.58663334 Ry
     estimated scf accuracy    <       0.00000007 Ry

     iteration # 27     ecut=   140.00 Ry     beta= 0.70
     Davidson diagonalization with overlap
     ethr =  2.46E-10,  avg # of iterations =  4.1

     negative rho (up, down):  9.134E-04 0.000E+00

     total cpu time spent up to now is       11.9 secs

     End of self-consistent calculation

          k = 0.0000 0.0000 0.0000 (  4801 PWs)   bands (ev):

   -69.2043 -39.1406 -35.2660 -35.2660 -35.2660 -15.2354 -15.2354 -15.2354
    10.1530  13.8669  13.8669  16.6616  16.6616  16.6616  19.0046  19.0046
    20.9451  20.9451

          k = 0.0000 0.0000 0.1111 (  4821 PWs)   bands (ev):

   -69.2039 -39.1374 -35.2697 -35.2654 -35.2654 -15.2786 -15.2329 -15.2329
    10.4102  13.9908  13.9988  16.6430  16.6430  16.7177  18.8475  19.0622
    20.5826  20.5826

          k = 0.0000 0.0000 0.2222 (  4801 PWs)   bands (ev):

   -69.2028 -39.1295 -35.2790 -35.2640 -35.2640 -15.3866 -15.2263 -15.2263
    11.1438  14.3129  14.3487  16.6065  16.6065  16.8691  18.4025  19.1658
    19.8175  19.8175

          k = 0.0000 0.0000 0.3333 (  4789 PWs)   bands (ev):

   -69.2017 -39.1205 -35.2895 -35.2623 -35.2623 -15.5076 -15.2189 -15.2189
    12.2345  14.5613  14.8885  16.5886  16.5886  17.0616  17.7587  19.0701
    19.0901  19.0901

          k = 0.0000 0.0000 0.4444 (  4805 PWs)   bands (ev):

   -69.2009 -39.1146 -35.2963 -35.2612 -35.2612 -15.5856 -15.2140 -15.2140
    13.4364  14.3575  15.4424  16.5971  16.5971  17.1343  17.2030  18.6545
    18.6545  18.6887

          k = 0.0000 0.1111 0.1111 (  4805 PWs)   bands (ev):

   -69.2035 -39.1340 -35.2710 -35.2676 -35.2648 -15.2798 -15.2710 -15.2301
    10.6596  14.1028  14.1346  16.5213  16.6077  16.8506  18.8366  19.0206
    20.2147  20.2231

          k = 0.0000 0.1111 0.2222 (  4791 PWs)   bands (ev):

   -69.2024 -39.1254 -35.2798 -35.2679 -35.2634 -15.3824 -15.2669 -15.2231
    11.3673  14.3909  14.4888  16.4128  16.5287  16.9762  18.5222  19.1067
    19.5190  19.6220

          k = 0.0000 0.1111 0.3333 (  4791 PWs)   bands (ev):

   -69.2013 -39.1156 -35.2906 -35.2673 -35.2618 -15.5015 -15.2580 -15.2152
    12.4072  14.6304  14.9695  16.3814  16.4517  16.9784  18.0220  18.7291
    19.1998  19.2932

          k = 0.0000 0.1111 0.4444 (  4805 PWs)   bands (ev):

   -69.2005 -39.1092 -35.2977 -35.2668 -35.2608 -15.5782 -15.2521 -15.2100
    13.5284  14.4160  15.4511  16.3729  16.4281  16.8600  17.6153  18.3322
    19.0625  19.1222

          k = 0.0000 0.2222 0.2222 (  4791 PWs)   bands (ev):

   -69.2014 -39.1149 -35.2839 -35.2758 -35.2621 -15.3804 -15.3599 -15.2151
    11.9852  14.5179  14.9059  16.1680  16.3907  16.9254  18.6822  18.9280
    19.0776  19.4448

          k = 0.0000 0.2222 0.3333 (  4797 PWs)   bands (ev):

   -69.2002 -39.1030 -35.2937 -35.2796 -35.2605 -15.4859 -15.3560 -15.2059
    12.8344  14.5596  15.4149  16.0316  16.3567  16.6323  18.4524  18.5681
    19.2726  19.5514

          k = 0.0000 0.2222 0.4444 (  4798 PWs)   bands (ev):

   -69.1995 -39.0953 -35.3012 -35.2809 -35.2595 -15.5596 -15.3478 -15.1998
    13.6335  14.3474  15.7687  16.0521  16.3090  16.5255  18.1621  18.3867
    19.4420  19.7736

          k = 0.0000 0.3333 0.3333 (  4773 PWs)   bands (ev):

   -69.1991 -39.0888 -35.2985 -35.2922 -35.2591 -15.4749 -15.4592 -15.1952
    13.2772  14.3425  15.7744  16.0819  16.1901  16.5975  18.4985  18.9572
    19.1304  20.0107

          k = 0.0000 0.3333 0.4444 (  4797 PWs)   bands (ev):

   -69.1983 -39.0794 -35.3052 -35.2969 -35.2582 -15.5384 -15.4550 -15.1883
    13.5432  14.1321  15.7015  15.8512  16.5380  17.2529  18.2579  19.0237
    19.3899  20.4027

          k = 0.0000 0.4444 0.4444 (  4768 PWs)   bands (ev):

   -69.1976 -39.0690 -35.3081 -35.3071 -35.2573 -15.5256 -15.5231 -15.1807
    13.4111  13.9880  15.5240  15.5747  17.4121  17.8951  18.6534  18.8991
    19.4002  20.7938

          k = 0.1111 0.1111 0.1111 (  4800 PWs)   bands (ev):

   -69.2031 -39.1304 -35.2704 -35.2704 -35.2660 -15.2797 -15.2683 -15.2683
    10.9029  14.2398  14.2398  16.4826  16.4826  16.9330  18.9193  18.9193
    19.6873  20.5511

          k = 0.1111 0.1111 0.2222 (  4798 PWs)   bands (ev):

   -69.2020 -39.1212 -35.2802 -35.2689 -35.2664 -15.3780 -15.2655 -15.2616
    11.5901  14.5392  14.5602  16.3346  16.3839  16.9341  18.6338  19.0555
    19.2934  19.7871

          k = 0.1111 0.1111 0.3333 (  4800 PWs)   bands (ev):

   -69.2009 -39.1107 -35.2915 -35.2672 -35.2665 -15.4956 -15.2547 -15.2539
    12.5888  14.7778  14.9750  16.2512  16.3096  16.7824  18.2365  18.8268
    19.0884  19.4697

          k = 0.1111 0.1111 0.4444 (  4800 PWs)   bands (ev):

   -69.2001 -39.1038 -35.2988 -35.2665 -35.2661 -15.5714 -15.2489 -15.2476
    13.6447  14.5219  15.4013  16.0884  16.4642  16.6558  17.9099  18.4427
    18.6928  19.7759

          k = 0.1111 0.2222 0.2222 (  4790 PWs)   bands (ev):

   -69.2010 -39.1104 -35.2832 -35.2766 -35.2666 -15.3749 -15.3571 -15.2548
    12.2044  14.6854  14.9561  16.1098  16.2318  16.6657  18.7809  19.0555
    19.1790  19.5656

          k = 0.1111 0.2222 0.3333 (  4796 PWs)   bands (ev):

   -69.1998 -39.0983 -35.2937 -35.2795 -35.2658 -15.4808 -15.3523 -15.2449
    13.0402  14.7477  15.3798  15.9601  16.1843  16.3784  18.6604  18.7093
    19.1639  19.8259

          k = 0.1111 0.2222 0.4444 (  4800 PWs)   bands (ev):

   -69.1991 -39.0903 -35.3016 -35.2804 -35.2650 -15.5541 -15.3442 -15.2384
    13.8091  14.5242  15.5937  15.8929  16.2208  16.4968  18.2711  18.5494
    18.9340  20.4574

          k = 0.1111 0.3333 0.3333 (  4787 PWs)   bands (ev):

   -69.1987 -39.0841 -35.2978 -35.2923 -35.2645 -15.4699 -15.4564 -15.2342
    13.4984  14.5254  15.7245  16.0002  16.0456  16.3676  18.5347  19.0228
    19.1246  20.3730

          k = 0.1111 0.3333 0.4444 (  4784 PWs)   bands (ev):

   -69.1979 -39.0748 -35.3049 -35.2963 -35.2636 -15.5344 -15.4518 -15.2272
    13.7460  14.3196  15.6447  15.7441  16.4459  17.0250  18.2491  18.9233
    19.2086  20.7266

          k = 0.1111 0.4444 0.4444 (  4772 PWs)   bands (ev):

   -69.1972 -39.0647 -35.3073 -35.3065 -35.2626 -15.5224 -15.5203 -15.2198
    13.6146  14.1773  15.4906  15.5316  17.3098  17.6414  18.3853  18.4778
    19.5191  20.9967

          k = 0.2222 0.2222 0.2222 (  4800 PWs)   bands (ev):

   -69.2000 -39.0991 -35.2816 -35.2816 -35.2752 -15.3657 -15.3500 -15.3500
    12.8009  15.0892  15.0892  15.9658  15.9658  16.1368  18.9758  18.9758
    19.7334  19.8017

          k = 0.2222 0.2222 0.3333 (  4793 PWs)   bands (ev):

   -69.1988 -39.0861 -35.2940 -35.2797 -35.2782 -15.4680 -15.3439 -15.3420
    13.5722  15.2106  15.2563  15.8008  15.8792  15.9764  18.8096  18.8384
    19.2745  20.2073

          k = 0.2222 0.2222 0.4444 (  4788 PWs)   bands (ev):

   -69.1981 -39.0776 -35.3028 -35.2795 -35.2785 -15.5401 -15.3368 -15.3336
    14.1886  14.8274  15.3913  15.6745  16.0217  16.3837  18.3152  18.6275
    19.0637  20.5596

          k = 0.2222 0.3333 0.3333 (  4791 PWs)   bands (ev):

   -69.1977 -39.0722 -35.2960 -35.2927 -35.2780 -15.4572 -15.4492 -15.3321
    14.1081  14.9634  15.6087  15.6570  15.8761  15.9302  18.5789  18.7298
    19.5875  20.3142

          k = 0.2222 0.3333 0.4444 (  4790 PWs)   bands (ev):

   -69.1970 -39.0631 -35.3042 -35.2948 -35.2773 -15.5242 -15.4437 -15.3249
    14.2952  14.7587  15.5186  15.5652  16.1328  16.5575  18.2058  18.5104
    19.6339  20.6968

          k = 0.2222 0.4444 0.4444 (  4769 PWs)   bands (ev):

   -69.1962 -39.0537 -35.3054 -35.3049 -35.2763 -15.5144 -15.5132 -15.3181
    14.1816  14.6484  15.4207  15.4503  16.8821  16.9027  18.0404  18.2421
    19.9147  21.0512

          k = 0.3333 0.3333 0.3333 (  4797 PWs)   bands (ev):

   -69.1966 -39.0587 -35.2939 -35.2939 -35.2926 -15.4435 -15.4410 -15.4410
    14.8409  15.1326  15.5031  15.5031  15.7489  15.7489  18.4424  18.4424
    20.2356  20.2356

          k = 0.3333 0.3333 0.4444 (  4783 PWs)   bands (ev):

   -69.1958 -39.0498 -35.3036 -35.2933 -35.2926 -15.5127 -15.4357 -15.4332
    14.8624  15.0704  15.4790  15.5727  15.7995  16.2222  18.0782  18.2967
    20.2289  20.7869

          k = 0.3333 0.4444 0.4444 (  4769 PWs)   bands (ev):

   -69.1951 -39.0411 -35.3032 -35.3031 -35.2917 -15.5053 -15.5050 -15.4284
    14.9324  15.1372  15.3878  15.4790  16.1954  16.2709  17.9125  18.1057
    20.5429  21.0945

          k = 0.4444 0.4444 0.4444 (  4758 PWs)   bands (ev):

   -69.1944 -39.0328 -35.3019 -35.3018 -35.3018 -15.4997 -15.4997 -15.4991
    15.2788  15.4658  15.4658  15.7971  15.7971  15.8050  17.8842  17.8842
    21.1209  21.1209

     the Fermi energy is    17.6493 ev

!    total energy              =    -448.58663335 Ry
     estimated scf accuracy    <          6.9E-10 Ry
     smearing contrib. (-TS)   =      -0.00008116 Ry
     internal energy E=F+TS    =    -448.58655220 Ry

     The total energy is F=E-TS. E is the sum of the following terms:
     one-electron contribution =    -151.35323792 Ry
     hartree contribution      =      91.63039695 Ry
     xc contribution           =     -52.88926199 Ry
     ewald contribution        =    -259.82070277 Ry
     one-center paw contrib.   =     -76.15374647 Ry

     convergence has been achieved in  27 iterations

     negative rho (up, down):  9.134E-04 0.000E+00

     Forces acting on atoms (cartesian axes, Ry/au):

     atom    1 type  1   force =     0.00000000    0.00000000    0.00000000
     atom    2 type  2   force =     0.00000000    0.00000000    0.00000000

     Total force =     0.000000     Total SCF correction =     0.000000


     Computing stress (Cartesian axis) and pressure


     negative rho (up, down):  9.134E-04 0.000E+00
          total   stress  (Ry/bohr**3)                   (kbar)     P=       32.20
   0.00021892   0.00000000   0.00000000           32.20        0.00        0.00
   0.00000000   0.00021892   0.00000000            0.00       32.20        0.00
   0.00000000   0.00000000   0.00021892            0.00        0.00       32.20


     Writing all to output data dir ./TiFe.save/ :
     XML data file, charge density, pseudopotentials, collected wavefunctions

     init_run     :      0.37s CPU      0.39s WALL (       1 calls)
     electrons    :     11.08s CPU     11.37s WALL (       1 calls)
     forces       :      0.04s CPU      0.04s WALL (       1 calls)
     stress       :      0.19s CPU      0.19s WALL (       1 calls)

     Called by init_run:
     wfcinit      :      0.16s CPU      0.16s WALL (       1 calls)
     potinit      :      0.04s CPU      0.05s WALL (       1 calls)
     hinit0       :      0.14s CPU      0.15s WALL (       1 calls)

     Called by electrons:
     c_bands      :      7.96s CPU      8.13s WALL (      27 calls)
     sum_band     :      1.76s CPU      1.79s WALL (      27 calls)
     v_of_rho     :      0.07s CPU      0.07s WALL (      28 calls)
     newd         :      0.33s CPU      0.33s WALL (      28 calls)
     PAW_pot      :      0.98s CPU      1.01s WALL (      28 calls)
     mix_rho      :      0.02s CPU      0.02s WALL (      27 calls)

     Called by c_bands:
     init_us_2    :      0.16s CPU      0.16s WALL (    1995 calls)
     cegterg      :      7.62s CPU      7.79s WALL (     945 calls)

     Called by *egterg:
     cdiaghg      :      0.88s CPU      0.90s WALL (    3046 calls)
     h_psi        :      6.02s CPU      6.17s WALL (    3081 calls)
     s_psi        :      0.11s CPU      0.11s WALL (    3081 calls)
     g_psi        :      0.02s CPU      0.02s WALL (    2101 calls)

     Called by h_psi:
     h_psi:calbec :      0.24s CPU      0.24s WALL (    3081 calls)
     vloc_psi     :      5.66s CPU      5.79s WALL (    3081 calls)
     add_vuspsi   :      0.11s CPU      0.11s WALL (    3081 calls)

     General routines
     calbec       :      0.36s CPU      0.37s WALL (    4621 calls)
     fft          :      0.14s CPU      0.15s WALL (     333 calls)
     ffts         :      0.00s CPU      0.00s WALL (      27 calls)
     fftw         :      6.34s CPU      6.48s WALL (   97914 calls)

     Parallel routines

     PWSCF        :     11.96s CPU     13.66s WALL


   This run was terminated on:  10:51:24  28Oct2025            

=------------------------------------------------------------------------------=
   JOB DONE.
=------------------------------------------------------------------------------=
Note: The following floating-point exceptions are signalling: IEEE_UNDERFLOW_FLAG IEEE_DENORMAL
Note: The following floating-point exceptions are signalling: IEEE_UNDERFLOW_FLAG IEEE_DENORMAL
Note: The following floating-point exceptions are signalling: IEEE_UNDERFLOW_FLAG IEEE_DENORMAL
Note: The following floating-point exceptions are signalling: IEEE_UNDERFLOW_FLAG IEEE_DENORMAL
Note: The following floating-point exceptions are signalling: IEEE_UNDERFLOW_FLAG IEEE_DENORMAL
Note: The following floating-point exceptions are signalling: IEEE_UNDERFLOW_FLAG IEEE_DENORMAL
Note: The following floating-point exceptions are signalling: IEEE_UNDERFLOW_FLAG IEEE_DENORMAL
Note: The following floating-point exceptions are signalling: IEEE_UNDERFLOW_FLAG IEEE_DENORMAL
Note: The following floating-point exceptions are signalling: IEEE_UNDERFLOW_FLAG IEEE_DENORMAL
Note: The following floating-point exceptions are signalling: IEEE_UNDERFLOW_FLAG IEEE_DENORMAL
Note: The following floating-point exceptions are signalling: IEEE_UNDERFLOW_FLAG IEEE_DENORMAL
Note: The following floating-point exceptions are signalling: IEEE_UNDERFLOW_FLAG IEEE_DENORMAL
Note: The following floating-point exceptions are signalling: IEEE_UNDERFLOW_FLAG IEEE_DENORMAL
Note: The following floating-point exceptions are signalling: IEEE_UNDERFLOW_FLAG IEEE_DENORMAL
Note: The following floating-point exceptions are signalling: IEEE_UNDERFLOW_FLAG IEEE_DENORMAL
Note: The following floating-point exceptions are signalling: IEEE_UNDERFLOW_FLAG IEEE_DENORMAL
