
     Program PWSCF v.7.4 starts on 28Oct2025 at 10:51:57 

     This program is part of the open-source Quantum ESPRESSO suite
     for quantum simulation of materials; please cite
         "P. Giannozzi et al., J. Phys.:Condens. Matter 21 395502 (2009);
         "P. Giannozzi et al., J. Phys.:Condens. Matter 29 465901 (2017);
         "P. Giannozzi et al., J. Chem. Phys. 152 154105 (2020);
          URL http://www.quantum-espresso.org", 
     in publications or presentations arising from this work. More details at
     http://www.quantum-espresso.org/quote

     Parallel version (MPI & OpenMP), running on      16 processor cores
     Number of MPI processes:                16
     Threads/MPI process:                     1

     MPI processes distributed on     1 nodes
     230709 MiB available memory on the printing compute node when the environment starts

     Reading input from TiFe_ecutrho_convergence/TiFe2_factor7.in

     Current dimensions of program PWSCF are:
     Max number of different atomic species (ntypx) = 10
     Max number of k-points (npk) =  40000
     Max angular momentum in pseudopotentials (lmaxx) =  4
     file Fe.pbe-spn-kjpaw_psl.0.2.1.UPF: wavefunction(s)  3D renormalized

     IMPORTANT: XC functional enforced from input :
     Exchange-correlation= PBE
                           (   1   4   3   4   0   0   0)
     Any further DFT definition will be discarded
     Please, verify this is what you really want

     Message from routine setup:
     using ibrav=0 with symmetry is DISCOURAGED, use correct ibrav instead

     R & G space division:  proc/nbgrp/npool/nimage =      16
     Subspace diagonalization in iterative solution of the eigenvalue problem:
     a serial algorithm will be used


     Parallelization info
     --------------------
     sticks:   dense  smooth     PW     G-vecs:    dense   smooth      PW
     Min         150      85     25                 5540     2399     375
     Max         152      86     26                 5542     2402     378
     Sum        2409    1369    401                88663    38401    6031

     Using Slab Decomposition



     bravais-lattice index     =            0
     lattice parameter (alat)  =       5.5533  a.u.
     unit-cell volume          =     171.2590 (a.u.)^3
     number of atoms/cell      =            2
     number of atomic types    =            2
     number of electrons       =        28.00
     number of Kohn-Sham states=           18
     kinetic-energy cutoff     =     140.0000  Ry
     charge density cutoff     =     980.0000  Ry
     scf convergence threshold =      1.0E-08
     mixing beta               =       0.7000
     number of iterations used =            8  plain     mixing
     Exchange-correlation= PBE
                           (   1   4   3   4   0   0   0)

     celldm(1)=   5.553300  celldm(2)=   0.000000  celldm(3)=   0.000000
     celldm(4)=   0.000000  celldm(5)=   0.000000  celldm(6)=   0.000000

     crystal axes: (cart. coord. in units of alat)
               a(1) = (   1.000000   0.000000   0.000000 )  
               a(2) = (   0.000000   1.000000   0.000000 )  
               a(3) = (   0.000000   0.000000   1.000000 )  

     reciprocal axes: (cart. coord. in units 2 pi/alat)
               b(1) = (  1.000000  0.000000  0.000000 )  
               b(2) = (  0.000000  1.000000  0.000000 )  
               b(3) = (  0.000000  0.000000  1.000000 )  


     PseudoPot. # 1 for Fe read from file:
     ./Fe.pbe-spn-kjpaw_psl.0.2.1.UPF
     MD5 check sum: e86618425769142926afa95317d90200
     Pseudo is Projector augmented-wave + core cor, Zval = 16.0
     Generated using "atomic" code by A. Dal Corso  v.5.0.99 svn rev. 10869
     Shape of augmentation charge: PSQ
     Using radial grid of 1191 points,  6 beta functions with: 
                l(1) =   0
                l(2) =   0
                l(3) =   1
                l(4) =   1
                l(5) =   2
                l(6) =   2
     Q(r) pseudized with 0 coefficients 


     PseudoPot. # 2 for Ti read from file:
     ./Ti_pbe_v1.4.uspp.F.UPF
     MD5 check sum: 88a00a6731bd790ddea75d31a80cb452
     Pseudo is Ultrasoft + core correction, Zval = 12.0
     Generated by new atomic code, or converted to UPF format
     Using radial grid of  851 points,  6 beta functions with: 
                l(1) =   0
                l(2) =   0
                l(3) =   1
                l(4) =   1
                l(5) =   2
                l(6) =   2
     Q(r) pseudized with  6 coefficients,  rinner =    1.000   1.000   1.000
                                                       1.000   1.000

     atomic species   valence    mass     pseudopotential
     Fe               16.00    55.84500     Fe( 1.00)
     Ti               12.00    47.86700     Ti( 1.00)

     48 Sym. Ops., with inversion, found



   Cartesian axes

     site n.     atom                  positions (alat units)
         1        Fe     tau(   1) = (   0.5000000   0.5000000   0.5000000  )
         2        Ti     tau(   2) = (   0.0000000   0.0000000   0.0000000  )

     number of k points=    35  Marzari-Vanderbilt smearing, width (Ry)=  0.0050
                       cart. coord. in units 2pi/alat
        k(    1) = (   0.0000000   0.0000000   0.0000000), wk =   0.0027435
        k(    2) = (   0.0000000   0.0000000   0.1111111), wk =   0.0164609
        k(    3) = (   0.0000000   0.0000000   0.2222222), wk =   0.0164609
        k(    4) = (   0.0000000   0.0000000   0.3333333), wk =   0.0164609
        k(    5) = (   0.0000000   0.0000000   0.4444444), wk =   0.0164609
        k(    6) = (   0.0000000   0.1111111   0.1111111), wk =   0.0329218
        k(    7) = (   0.0000000   0.1111111   0.2222222), wk =   0.0658436
        k(    8) = (   0.0000000   0.1111111   0.3333333), wk =   0.0658436
        k(    9) = (   0.0000000   0.1111111   0.4444444), wk =   0.0658436
        k(   10) = (   0.0000000   0.2222222   0.2222222), wk =   0.0329218
        k(   11) = (   0.0000000   0.2222222   0.3333333), wk =   0.0658436
        k(   12) = (   0.0000000   0.2222222   0.4444444), wk =   0.0658436
        k(   13) = (   0.0000000   0.3333333   0.3333333), wk =   0.0329218
        k(   14) = (   0.0000000   0.3333333   0.4444444), wk =   0.0658436
        k(   15) = (   0.0000000   0.4444444   0.4444444), wk =   0.0329218
        k(   16) = (   0.1111111   0.1111111   0.1111111), wk =   0.0219479
        k(   17) = (   0.1111111   0.1111111   0.2222222), wk =   0.0658436
        k(   18) = (   0.1111111   0.1111111   0.3333333), wk =   0.0658436
        k(   19) = (   0.1111111   0.1111111   0.4444444), wk =   0.0658436
        k(   20) = (   0.1111111   0.2222222   0.2222222), wk =   0.0658436
        k(   21) = (   0.1111111   0.2222222   0.3333333), wk =   0.1316872
        k(   22) = (   0.1111111   0.2222222   0.4444444), wk =   0.1316872
        k(   23) = (   0.1111111   0.3333333   0.3333333), wk =   0.0658436
        k(   24) = (   0.1111111   0.3333333   0.4444444), wk =   0.1316872
        k(   25) = (   0.1111111   0.4444444   0.4444444), wk =   0.0658436
        k(   26) = (   0.2222222   0.2222222   0.2222222), wk =   0.0219479
        k(   27) = (   0.2222222   0.2222222   0.3333333), wk =   0.0658436
        k(   28) = (   0.2222222   0.2222222   0.4444444), wk =   0.0658436
        k(   29) = (   0.2222222   0.3333333   0.3333333), wk =   0.0658436
        k(   30) = (   0.2222222   0.3333333   0.4444444), wk =   0.1316872
        k(   31) = (   0.2222222   0.4444444   0.4444444), wk =   0.0658436
        k(   32) = (   0.3333333   0.3333333   0.3333333), wk =   0.0219479
        k(   33) = (   0.3333333   0.3333333   0.4444444), wk =   0.0658436
        k(   34) = (   0.3333333   0.4444444   0.4444444), wk =   0.0658436
        k(   35) = (   0.4444444   0.4444444   0.4444444), wk =   0.0219479

     Dense  grid:    88663 G-vectors     FFT dimensions: (  60,  60,  60)

     Smooth grid:    38401 G-vectors     FFT dimensions: (  45,  45,  45)

     Estimated max dynamical RAM per process >      28.57 MB

     Estimated total dynamical RAM >     457.19 MB

     Check: negative core charge=   -0.000007

     Initial potential from superposition of free atoms

     starting charge      26.9995, renormalised to      28.0000

     negative rho (up, down):  1.440E-03 0.000E+00
     Starting wfcs are   23 randomized atomic wfcs
     Checking if some PAW data can be deallocated... 

     total cpu time spent up to now is        1.1 secs

     per-process dynamical memory:   134.3 Mb

     Self-consistent Calculation

     iteration #  1     ecut=   140.00 Ry     beta= 0.70
     Davidson diagonalization with overlap
     ethr =  1.00E-02,  avg # of iterations =  2.1

     negative rho (up, down):  1.207E-04 0.000E+00

     total cpu time spent up to now is        1.6 secs

     WARNING: integrated charge=    28.00077076, expected=    28.00000000

     total energy              =    -434.87436355 Ry
     estimated scf accuracy    <      17.48284425 Ry

     iteration #  2     ecut=   140.00 Ry     beta= 0.70
     Davidson diagonalization with overlap
     ethr =  1.00E-02,  avg # of iterations =  6.1

     negative rho (up, down):  3.996E-05 0.000E+00

     total cpu time spent up to now is        2.4 secs

     WARNING: integrated charge=    28.00058801, expected=    28.00000000

     total energy              =    -448.52119141 Ry
     estimated scf accuracy    <      66.12320107 Ry

     iteration #  3     ecut=   140.00 Ry     beta= 0.70
     Davidson diagonalization with overlap
     ethr =  1.00E-02,  avg # of iterations =  3.1

     negative rho (up, down):  2.381E-04 0.000E+00

     total cpu time spent up to now is        2.9 secs

     WARNING: integrated charge=    28.00046905, expected=    28.00000000

     total energy              =    -448.59441963 Ry
     estimated scf accuracy    <      16.78587013 Ry

     iteration #  4     ecut=   140.00 Ry     beta= 0.70
     Davidson diagonalization with overlap
     ethr =  1.00E-02,  avg # of iterations =  2.2

     negative rho (up, down):  2.663E-04 0.000E+00

     total cpu time spent up to now is        3.4 secs

     WARNING: integrated charge=    28.00045606, expected=    28.00000000

     total energy              =    -449.11475278 Ry
     estimated scf accuracy    <       4.69935174 Ry

     iteration #  5     ecut=   140.00 Ry     beta= 0.70
     Davidson diagonalization with overlap
     ethr =  1.00E-02,  avg # of iterations =  1.0

     negative rho (up, down):  3.138E-04 0.000E+00

     total cpu time spent up to now is        3.8 secs

     WARNING: integrated charge=    28.00042532, expected=    28.00000000

     total energy              =    -449.11068305 Ry
     estimated scf accuracy    <       4.29776906 Ry

     iteration #  6     ecut=   140.00 Ry     beta= 0.70
     Davidson diagonalization with overlap
     ethr =  1.00E-02,  avg # of iterations =  1.1

     negative rho (up, down):  1.187E-03 0.000E+00

     total cpu time spent up to now is        4.3 secs

     WARNING: integrated charge=    28.00020599, expected=    28.00000000

     total energy              =    -447.87745502 Ry
     estimated scf accuracy    <       4.56743049 Ry

     iteration #  7     ecut=   140.00 Ry     beta= 0.70
     Davidson diagonalization with overlap
     ethr =  1.00E-02,  avg # of iterations =  3.4

     negative rho (up, down):  1.056E-03 0.000E+00

     total cpu time spent up to now is        4.8 secs

     WARNING: integrated charge=    28.00018730, expected=    28.00000000

     total energy              =    -448.59976526 Ry
     estimated scf accuracy    <       4.35607802 Ry

     iteration #  8     ecut=   140.00 Ry     beta= 0.70
     Davidson diagonalization with overlap
     ethr =  1.00E-02,  avg # of iterations =  1.0

     negative rho (up, down):  7.099E-04 0.000E+00

     total cpu time spent up to now is        5.2 secs

     WARNING: integrated charge=    28.00013955, expected=    28.00000000

     total energy              =    -448.38983622 Ry
     estimated scf accuracy    <       1.54429304 Ry

     iteration #  9     ecut=   140.00 Ry     beta= 0.70
     Davidson diagonalization with overlap
     ethr =  5.52E-03,  avg # of iterations =  1.9

     negative rho (up, down):  7.068E-04 0.000E+00

     total cpu time spent up to now is        5.6 secs

     WARNING: integrated charge=    28.00013554, expected=    28.00000000

     total energy              =    -448.62340791 Ry
     estimated scf accuracy    <       0.47136810 Ry

     iteration # 10     ecut=   140.00 Ry     beta= 0.70
     Davidson diagonalization with overlap
     ethr =  1.68E-03,  avg # of iterations =  1.2

     negative rho (up, down):  6.420E-04 0.000E+00

     total cpu time spent up to now is        6.0 secs

     WARNING: integrated charge=    28.00010069, expected=    28.00000000

     total energy              =    -448.67555205 Ry
     estimated scf accuracy    <       0.55516071 Ry

     iteration # 11     ecut=   140.00 Ry     beta= 0.70
     Davidson diagonalization with overlap
     ethr =  1.68E-03,  avg # of iterations =  1.2

     negative rho (up, down):  6.182E-04 0.000E+00

     total cpu time spent up to now is        6.4 secs

     WARNING: integrated charge=    28.00002234, expected=    28.00000000

     total energy              =    -448.65992874 Ry
     estimated scf accuracy    <       1.33283299 Ry

     iteration # 12     ecut=   140.00 Ry     beta= 0.70
     Davidson diagonalization with overlap
     ethr =  1.68E-03,  avg # of iterations =  1.0

     negative rho (up, down):  6.867E-04 0.000E+00

     total cpu time spent up to now is        6.8 secs

     WARNING: integrated charge=    28.00002353, expected=    28.00000000

     total energy              =    -448.62970462 Ry
     estimated scf accuracy    <       0.90531251 Ry

     iteration # 13     ecut=   140.00 Ry     beta= 0.70
     Davidson diagonalization with overlap
     ethr =  1.68E-03,  avg # of iterations =  1.0

     negative rho (up, down):  6.780E-04 0.000E+00

     total cpu time spent up to now is        7.3 secs

     WARNING: integrated charge=    27.99999200, expected=    28.00000000

     total energy              =    -448.62297612 Ry
     estimated scf accuracy    <       0.48575344 Ry

     iteration # 14     ecut=   140.00 Ry     beta= 0.70
     Davidson diagonalization with overlap
     ethr =  1.68E-03,  avg # of iterations =  1.0

     negative rho (up, down):  6.942E-04 0.000E+00

     total cpu time spent up to now is        7.7 secs

     WARNING: integrated charge=    27.99999417, expected=    28.00000000

     total energy              =    -448.63475585 Ry
     estimated scf accuracy    <       0.31167141 Ry

     iteration # 15     ecut=   140.00 Ry     beta= 0.70
     Davidson diagonalization with overlap
     ethr =  1.11E-03,  avg # of iterations =  1.0

     negative rho (up, down):  6.813E-04 0.000E+00

     total cpu time spent up to now is        8.1 secs

     WARNING: integrated charge=    27.99998837, expected=    28.00000000

     total energy              =    -448.63693088 Ry
     estimated scf accuracy    <       0.42443038 Ry

     iteration # 16     ecut=   140.00 Ry     beta= 0.70
     Davidson diagonalization with overlap
     ethr =  1.11E-03,  avg # of iterations =  1.0

     negative rho (up, down):  7.119E-04 0.000E+00

     total cpu time spent up to now is        8.5 secs

     WARNING: integrated charge=    27.99999125, expected=    28.00000000

     total energy              =    -448.63455216 Ry
     estimated scf accuracy    <       0.39364807 Ry

     iteration # 17     ecut=   140.00 Ry     beta= 0.70
     Davidson diagonalization with overlap
     ethr =  1.11E-03,  avg # of iterations =  1.0

     negative rho (up, down):  9.983E-04 0.000E+00

     total cpu time spent up to now is        8.9 secs

     WARNING: integrated charge=    27.99999371, expected=    28.00000000

     total energy              =    -448.54197330 Ry
     estimated scf accuracy    <       0.42925948 Ry

     iteration # 18     ecut=   140.00 Ry     beta= 0.70
     Davidson diagonalization with overlap
     ethr =  1.11E-03,  avg # of iterations =  2.4

     negative rho (up, down):  9.722E-04 0.000E+00

     total cpu time spent up to now is        9.4 secs

     WARNING: integrated charge=    28.00000367, expected=    28.00000000

     total energy              =    -448.58289291 Ry
     estimated scf accuracy    <       0.00872948 Ry

     iteration # 19     ecut=   140.00 Ry     beta= 0.70
     Davidson diagonalization with overlap
     ethr =  3.12E-05,  avg # of iterations =  4.4

     negative rho (up, down):  9.724E-04 0.000E+00

     total cpu time spent up to now is        9.9 secs

     total energy              =    -448.58653118 Ry
     estimated scf accuracy    <       0.00345939 Ry

     iteration # 20     ecut=   140.00 Ry     beta= 0.70
     Davidson diagonalization with overlap
     ethr =  1.24E-05,  avg # of iterations =  1.8

     negative rho (up, down):  9.722E-04 0.000E+00

     total cpu time spent up to now is       10.3 secs

     total energy              =    -448.58656244 Ry
     estimated scf accuracy    <       0.00160938 Ry

     iteration # 21     ecut=   140.00 Ry     beta= 0.70
     Davidson diagonalization with overlap
     ethr =  5.75E-06,  avg # of iterations =  2.2

     negative rho (up, down):  9.636E-04 0.000E+00

     total cpu time spent up to now is       10.8 secs

     total energy              =    -448.58652528 Ry
     estimated scf accuracy    <       0.00034989 Ry

     iteration # 22     ecut=   140.00 Ry     beta= 0.70
     Davidson diagonalization with overlap
     ethr =  1.25E-06,  avg # of iterations =  2.5

     negative rho (up, down):  9.776E-04 0.000E+00

     total cpu time spent up to now is       11.3 secs

     total energy              =    -448.58655460 Ry
     estimated scf accuracy    <       0.00037383 Ry

     iteration # 23     ecut=   140.00 Ry     beta= 0.70
     Davidson diagonalization with overlap
     ethr =  1.25E-06,  avg # of iterations =  1.3

     negative rho (up, down):  9.764E-04 0.000E+00

     total cpu time spent up to now is       11.7 secs

     total energy              =    -448.58658946 Ry
     estimated scf accuracy    <       0.00000054 Ry

     iteration # 24     ecut=   140.00 Ry     beta= 0.70
     Davidson diagonalization with overlap
     ethr =  1.91E-09,  avg # of iterations =  7.2

     negative rho (up, down):  9.776E-04 0.000E+00

     total cpu time spent up to now is       12.5 secs

     total energy              =    -448.58659458 Ry
     estimated scf accuracy    <       0.00000077 Ry

     iteration # 25     ecut=   140.00 Ry     beta= 0.70
     Davidson diagonalization with overlap
     ethr =  1.91E-09,  avg # of iterations =  2.1

     negative rho (up, down):  9.774E-04 0.000E+00

     total cpu time spent up to now is       13.0 secs

     total energy              =    -448.58659453 Ry
     estimated scf accuracy    <       0.00000212 Ry

     iteration # 26     ecut=   140.00 Ry     beta= 0.70
     Davidson diagonalization with overlap
     ethr =  1.91E-09,  avg # of iterations =  1.0

     negative rho (up, down):  9.772E-04 0.000E+00

     total cpu time spent up to now is       13.4 secs

     total energy              =    -448.58659437 Ry
     estimated scf accuracy    <       0.00000107 Ry

     iteration # 27     ecut=   140.00 Ry     beta= 0.70
     Davidson diagonalization with overlap
     ethr =  1.91E-09,  avg # of iterations =  2.0

     negative rho (up, down):  9.775E-04 0.000E+00

     total cpu time spent up to now is       13.9 secs

     End of self-consistent calculation

          k = 0.0000 0.0000 0.0000 (  4801 PWs)   bands (ev):

   -69.2041 -39.1403 -35.2660 -35.2660 -35.2660 -15.2352 -15.2352 -15.2352
    10.1530  13.8669  13.8669  16.6616  16.6616  16.6616  19.0047  19.0047
    20.9453  20.9453

          k = 0.0000 0.0000 0.1111 (  4821 PWs)   bands (ev):

   -69.2037 -39.1371 -35.2697 -35.2654 -35.2654 -15.2783 -15.2326 -15.2326
    10.4102  13.9908  13.9987  16.6430  16.6430  16.7177  18.8476  19.0623
    20.5828  20.5828

          k = 0.0000 0.0000 0.2222 (  4801 PWs)   bands (ev):

   -69.2026 -39.1292 -35.2790 -35.2640 -35.2640 -15.3864 -15.2261 -15.2261
    11.1437  14.3129  14.3487  16.6065  16.6065  16.8690  18.4026  19.1659
    19.8176  19.8176

          k = 0.0000 0.0000 0.3333 (  4789 PWs)   bands (ev):

   -69.2015 -39.1202 -35.2895 -35.2623 -35.2623 -15.5074 -15.2186 -15.2186
    12.2344  14.5613  14.8885  16.5885  16.5885  17.0615  17.7588  19.0701
    19.0903  19.0903

          k = 0.0000 0.0000 0.4444 (  4805 PWs)   bands (ev):

   -69.2007 -39.1143 -35.2963 -35.2612 -35.2612 -15.5853 -15.2137 -15.2137
    13.4363  14.3574  15.4424  16.5971  16.5971  17.1344  17.2030  18.6547
    18.6547  18.6887

          k = 0.0000 0.1111 0.1111 (  4805 PWs)   bands (ev):

   -69.2033 -39.1337 -35.2710 -35.2676 -35.2648 -15.2795 -15.2707 -15.2298
    10.6595  14.1028  14.1346  16.5213  16.6076  16.8506  18.8367  19.0207
    20.2149  20.2232

          k = 0.0000 0.1111 0.2222 (  4791 PWs)   bands (ev):

   -69.2022 -39.1251 -35.2798 -35.2679 -35.2634 -15.3821 -15.2667 -15.2229
    11.3672  14.3909  14.4888  16.4128  16.5287  16.9761  18.5223  19.1068
    19.5192  19.6222

          k = 0.0000 0.1111 0.3333 (  4791 PWs)   bands (ev):

   -69.2011 -39.1153 -35.2907 -35.2673 -35.2618 -15.5012 -15.2577 -15.2149
    12.4072  14.6303  14.9694  16.3814  16.4517  16.9784  18.0221  18.7292
    19.2000  19.2933

          k = 0.0000 0.1111 0.4444 (  4805 PWs)   bands (ev):

   -69.2003 -39.1089 -35.2977 -35.2668 -35.2608 -15.5780 -15.2519 -15.2097
    13.5283  14.4160  15.4511  16.3729  16.4281  16.8600  17.6154  18.3323
    19.0626  19.1223

          k = 0.0000 0.2222 0.2222 (  4791 PWs)   bands (ev):

   -69.2012 -39.1146 -35.2839 -35.2758 -35.2621 -15.3801 -15.3596 -15.2148
    11.9852  14.5178  14.9059  16.1680  16.3907  16.9254  18.6823  18.9281
    19.0777  19.4450

          k = 0.0000 0.2222 0.3333 (  4797 PWs)   bands (ev):

   -69.2000 -39.1028 -35.2937 -35.2796 -35.2606 -15.4856 -15.3557 -15.2056
    12.8343  14.5596  15.4149  16.0316  16.3566  16.6322  18.4525  18.5682
    19.2727  19.5515

          k = 0.0000 0.2222 0.4444 (  4798 PWs)   bands (ev):

   -69.1993 -39.0950 -35.3012 -35.2809 -35.2596 -15.5593 -15.3475 -15.1996
    13.6334  14.3473  15.7686  16.0520  16.3090  16.5255  18.1622  18.3868
    19.4421  19.7737

          k = 0.0000 0.3333 0.3333 (  4773 PWs)   bands (ev):

   -69.1989 -39.0885 -35.2985 -35.2922 -35.2591 -15.4746 -15.4590 -15.1949
    13.2771  14.3425  15.7744  16.0818  16.1900  16.5975  18.4986  18.9573
    19.1305  20.0108

          k = 0.0000 0.3333 0.4444 (  4797 PWs)   bands (ev):

   -69.1981 -39.0791 -35.3052 -35.2969 -35.2582 -15.5381 -15.4547 -15.1880
    13.5432  14.1321  15.7015  15.8512  16.5380  17.2528  18.2579  19.0238
    19.3899  20.4028

          k = 0.0000 0.4444 0.4444 (  4768 PWs)   bands (ev):

   -69.1974 -39.0687 -35.3081 -35.3071 -35.2573 -15.5253 -15.5229 -15.1804
    13.4111  13.9880  15.5240  15.5747  17.4120  17.8951  18.6534  18.8991
    19.4003  20.7936

          k = 0.1111 0.1111 0.1111 (  4800 PWs)   bands (ev):

   -69.2029 -39.1301 -35.2705 -35.2705 -35.2660 -15.2795 -15.2680 -15.2680
    10.9028  14.2398  14.2398  16.4826  16.4826  16.9329  18.9194  18.9194
    19.6875  20.5513

          k = 0.1111 0.1111 0.2222 (  4798 PWs)   bands (ev):

   -69.2018 -39.1209 -35.2802 -35.2690 -35.2664 -15.3777 -15.2652 -15.2613
    11.5900  14.5392  14.5602  16.3346  16.3839  16.9341  18.6339  19.0556
    19.2936  19.7873

          k = 0.1111 0.1111 0.3333 (  4800 PWs)   bands (ev):

   -69.2007 -39.1104 -35.2915 -35.2672 -35.2665 -15.4953 -15.2544 -15.2537
    12.5887  14.7778  14.9749  16.2512  16.3096  16.7823  18.2366  18.8269
    19.0886  19.4699

          k = 0.1111 0.1111 0.4444 (  4800 PWs)   bands (ev):

   -69.1999 -39.1035 -35.2988 -35.2665 -35.2661 -15.5711 -15.2487 -15.2473
    13.6446  14.5218  15.4013  16.0884  16.4642  16.6558  17.9100  18.4427
    18.6929  19.7760

          k = 0.1111 0.2222 0.2222 (  4790 PWs)   bands (ev):

   -69.2008 -39.1102 -35.2832 -35.2766 -35.2666 -15.3747 -15.3568 -15.2546
    12.2043  14.6854  14.9561  16.1098  16.2318  16.6657  18.7810  19.0556
    19.1792  19.5657

          k = 0.1111 0.2222 0.3333 (  4796 PWs)   bands (ev):

   -69.1997 -39.0980 -35.2937 -35.2795 -35.2658 -15.4805 -15.3521 -15.2447
    13.0402  14.7477  15.3798  15.9601  16.1843  16.3784  18.6605  18.7094
    19.1640  19.8260

          k = 0.1111 0.2222 0.4444 (  4800 PWs)   bands (ev):

   -69.1989 -39.0900 -35.3016 -35.2804 -35.2651 -15.5538 -15.3439 -15.2381
    13.8090  14.5242  15.5937  15.8929  16.2208  16.4968  18.2711  18.5495
    18.9341  20.4575

          k = 0.1111 0.3333 0.3333 (  4787 PWs)   bands (ev):

   -69.1985 -39.0838 -35.2978 -35.2923 -35.2645 -15.4696 -15.4561 -15.2339
    13.4983  14.5254  15.7245  16.0002  16.0455  16.3675  18.5348  19.0229
    19.1247  20.3731

          k = 0.1111 0.3333 0.4444 (  4784 PWs)   bands (ev):

   -69.1978 -39.0745 -35.3049 -35.2963 -35.2636 -15.5341 -15.4516 -15.2269
    13.7460  14.3195  15.6447  15.7441  16.4459  17.0249  18.2491  18.9233
    19.2087  20.7260

          k = 0.1111 0.4444 0.4444 (  4772 PWs)   bands (ev):

   -69.1970 -39.0644 -35.3073 -35.3065 -35.2627 -15.5221 -15.5200 -15.2196
    13.6146  14.1773  15.4906  15.5316  17.3098  17.6413  18.3853  18.4778
    19.5193  20.9969

          k = 0.2222 0.2222 0.2222 (  4800 PWs)   bands (ev):

   -69.1998 -39.0988 -35.2816 -35.2816 -35.2752 -15.3654 -15.3498 -15.3498
    12.8008  15.0891  15.0891  15.9658  15.9658  16.1368  18.9759  18.9759
    19.7335  19.8019

          k = 0.2222 0.2222 0.3333 (  4793 PWs)   bands (ev):

   -69.1986 -39.0858 -35.2940 -35.2797 -35.2782 -15.4677 -15.3436 -15.3417
    13.5721  15.2106  15.2562  15.8008  15.8792  15.9764  18.8097  18.8385
    19.2746  20.2075

          k = 0.2222 0.2222 0.4444 (  4788 PWs)   bands (ev):

   -69.1979 -39.0773 -35.3028 -35.2795 -35.2785 -15.5398 -15.3365 -15.3333
    14.1885  14.8273  15.3912  15.6745  16.0217  16.3837  18.3152  18.6276
    19.0638  20.5597

          k = 0.2222 0.3333 0.3333 (  4791 PWs)   bands (ev):

   -69.1975 -39.0719 -35.2960 -35.2927 -35.2780 -15.4569 -15.4489 -15.3318
    14.1081  14.9633  15.6087  15.6570  15.8760  15.9301  18.5789  18.7299
    19.5876  20.3144

          k = 0.2222 0.3333 0.4444 (  4790 PWs)   bands (ev):

   -69.1968 -39.0628 -35.3042 -35.2948 -35.2773 -15.5239 -15.4435 -15.3246
    14.2952  14.7586  15.5186  15.5652  16.1327  16.5575  18.2058  18.5105
    19.6341  20.6970

          k = 0.2222 0.4444 0.4444 (  4769 PWs)   bands (ev):

   -69.1960 -39.0534 -35.3054 -35.3049 -35.2763 -15.5141 -15.5129 -15.3178
    14.1816  14.6484  15.4207  15.4503  16.8821  16.9027  18.0405  18.2422
    19.9148  21.0515

          k = 0.3333 0.3333 0.3333 (  4797 PWs)   bands (ev):

   -69.1964 -39.0584 -35.2939 -35.2939 -35.2926 -15.4433 -15.4408 -15.4408
    14.8409  15.1326  15.5031  15.5031  15.7489  15.7489  18.4424  18.4424
    20.2357  20.2357

          k = 0.3333 0.3333 0.4444 (  4783 PWs)   bands (ev):

   -69.1956 -39.0495 -35.3036 -35.2933 -35.2926 -15.5124 -15.4354 -15.4330
    14.8624  15.0703  15.4790  15.5727  15.7994  16.2222  18.0782  18.2968
    20.2291  20.7871

          k = 0.3333 0.4444 0.4444 (  4769 PWs)   bands (ev):

   -69.1949 -39.0408 -35.3032 -35.3031 -35.2918 -15.5050 -15.5047 -15.4281
    14.9324  15.1371  15.3878  15.4790  16.1954  16.2709  17.9125  18.1058
    20.5431  21.0948

          k = 0.4444 0.4444 0.4444 (  4758 PWs)   bands (ev):

   -69.1942 -39.0325 -35.3020 -35.3018 -35.3018 -15.4994 -15.4994 -15.4988
    15.2788  15.4657  15.4657  15.7971  15.7971  15.8050  17.8842  17.8842
    21.1211  21.1211

     the Fermi energy is    17.6493 ev

!    total energy              =    -448.58659446 Ry
     estimated scf accuracy    <          4.8E-09 Ry
     smearing contrib. (-TS)   =      -0.00008123 Ry
     internal energy E=F+TS    =    -448.58651322 Ry

     The total energy is F=E-TS. E is the sum of the following terms:
     one-electron contribution =    -151.35315848 Ry
     hartree contribution      =      91.63028087 Ry
     xc contribution           =     -52.88918927 Ry
     ewald contribution        =    -259.82070277 Ry
     one-center paw contrib.   =     -76.15374358 Ry

     convergence has been achieved in  27 iterations

     negative rho (up, down):  9.775E-04 0.000E+00

     Forces acting on atoms (cartesian axes, Ry/au):

     atom    1 type  1   force =     0.00000000    0.00000000    0.00000000
     atom    2 type  2   force =     0.00000000    0.00000000    0.00000000

     Total force =     0.000000     Total SCF correction =     0.000000


     Computing stress (Cartesian axis) and pressure


     negative rho (up, down):  9.775E-04 0.000E+00
          total   stress  (Ry/bohr**3)                   (kbar)     P=       31.18
   0.00021194   0.00000000   0.00000000           31.18        0.00        0.00
   0.00000000   0.00021194   0.00000000            0.00       31.18        0.00
   0.00000000   0.00000000   0.00021194            0.00        0.00       31.18


     Writing all to output data dir ./TiFe.save/ :
     XML data file, charge density, pseudopotentials, collected wavefunctions

     init_run     :      0.81s CPU      0.84s WALL (       1 calls)
     electrons    :     12.49s CPU     12.86s WALL (       1 calls)
     forces       :      0.06s CPU      0.07s WALL (       1 calls)
     stress       :      0.34s CPU      0.34s WALL (       1 calls)

     Called by init_run:
     wfcinit      :      0.16s CPU      0.17s WALL (       1 calls)
     potinit      :      0.15s CPU      0.16s WALL (       1 calls)
     hinit0       :      0.44s CPU      0.45s WALL (       1 calls)

     Called by electrons:
     c_bands      :      8.29s CPU      8.49s WALL (      27 calls)
     sum_band     :      2.36s CPU      2.41s WALL (      27 calls)
     v_of_rho     :      0.15s CPU      0.17s WALL (      28 calls)
     newd         :      0.73s CPU      0.74s WALL (      28 calls)
     PAW_pot      :      0.97s CPU      1.00s WALL (      28 calls)
     mix_rho      :      0.03s CPU      0.03s WALL (      27 calls)

     Called by c_bands:
     init_us_2    :      0.16s CPU      0.16s WALL (    1995 calls)
     cegterg      :      7.96s CPU      8.14s WALL (     945 calls)

     Called by *egterg:
     cdiaghg      :      0.86s CPU      0.88s WALL (    2955 calls)
     h_psi        :      6.37s CPU      6.53s WALL (    2990 calls)
     s_psi        :      0.11s CPU      0.11s WALL (    2990 calls)
     g_psi        :      0.02s CPU      0.02s WALL (    2010 calls)

     Called by h_psi:
     h_psi:calbec :      0.26s CPU      0.27s WALL (    2990 calls)
     vloc_psi     :      5.98s CPU      6.12s WALL (    2990 calls)
     add_vuspsi   :      0.11s CPU      0.11s WALL (    2990 calls)

     General routines
     calbec       :      0.39s CPU      0.40s WALL (    4530 calls)
     fft          :      0.48s CPU      0.50s WALL (     387 calls)
     ffts         :      0.11s CPU      0.11s WALL (      55 calls)
     fftw         :      6.55s CPU      6.71s WALL (   99344 calls)
     interpolate  :      0.12s CPU      0.12s WALL (      28 calls)

     Parallel routines

     PWSCF        :     14.00s CPU     15.78s WALL


   This run was terminated on:  10:52:13  28Oct2025            

=------------------------------------------------------------------------------=
   JOB DONE.
=------------------------------------------------------------------------------=
Note: The following floating-point exceptions are signalling: IEEE_UNDERFLOW_FLAG IEEE_DENORMAL
Note: The following floating-point exceptions are signalling: IEEE_UNDERFLOW_FLAG IEEE_DENORMAL
Note: The following floating-point exceptions are signalling: IEEE_UNDERFLOW_FLAG IEEE_DENORMAL
Note: The following floating-point exceptions are signalling: IEEE_UNDERFLOW_FLAG IEEE_DENORMAL
Note: The following floating-point exceptions are signalling: IEEE_UNDERFLOW_FLAG IEEE_DENORMAL
Note: The following floating-point exceptions are signalling: IEEE_UNDERFLOW_FLAG IEEE_DENORMAL
Note: The following floating-point exceptions are signalling: IEEE_UNDERFLOW_FLAG IEEE_DENORMAL
Note: The following floating-point exceptions are signalling: IEEE_UNDERFLOW_FLAG IEEE_DENORMAL
Note: The following floating-point exceptions are signalling: IEEE_UNDERFLOW_FLAG IEEE_DENORMAL
Note: The following floating-point exceptions are signalling: IEEE_UNDERFLOW_FLAG IEEE_DENORMAL
Note: The following floating-point exceptions are signalling: IEEE_UNDERFLOW_FLAG IEEE_DENORMAL
Note: The following floating-point exceptions are signalling: IEEE_UNDERFLOW_FLAG IEEE_DENORMAL
Note: The following floating-point exceptions are signalling: IEEE_UNDERFLOW_FLAG IEEE_DENORMAL
Note: The following floating-point exceptions are signalling: IEEE_UNDERFLOW_FLAG IEEE_DENORMAL
Note: The following floating-point exceptions are signalling: IEEE_UNDERFLOW_FLAG IEEE_DENORMAL
Note: The following floating-point exceptions are signalling: IEEE_UNDERFLOW_FLAG IEEE_DENORMAL
