
     Program PWSCF v.7.4 starts on 28Oct2025 at 10:53:31 

     This program is part of the open-source Quantum ESPRESSO suite
     for quantum simulation of materials; please cite
         "P. Giannozzi et al., J. Phys.:Condens. Matter 21 395502 (2009);
         "P. Giannozzi et al., J. Phys.:Condens. Matter 29 465901 (2017);
         "P. Giannozzi et al., J. Chem. Phys. 152 154105 (2020);
          URL http://www.quantum-espresso.org", 
     in publications or presentations arising from this work. More details at
     http://www.quantum-espresso.org/quote

     Parallel version (MPI & OpenMP), running on      16 processor cores
     Number of MPI processes:                16
     Threads/MPI process:                     1

     MPI processes distributed on     1 nodes
     230599 MiB available memory on the printing compute node when the environment starts

     Reading input from TiFe_ecutrho_convergence/TiFe2_factor15.in

     Current dimensions of program PWSCF are:
     Max number of different atomic species (ntypx) = 10
     Max number of k-points (npk) =  40000
     Max angular momentum in pseudopotentials (lmaxx) =  4
     file Fe.pbe-spn-kjpaw_psl.0.2.1.UPF: wavefunction(s)  3D renormalized

     IMPORTANT: XC functional enforced from input :
     Exchange-correlation= PBE
                           (   1   4   3   4   0   0   0)
     Any further DFT definition will be discarded
     Please, verify this is what you really want

     Message from routine setup:
     using ibrav=0 with symmetry is DISCOURAGED, use correct ibrav instead

     R & G space division:  proc/nbgrp/npool/nimage =      16
     Subspace diagonalization in iterative solution of the eigenvalue problem:
     a serial algorithm will be used


     Parallelization info
     --------------------
     sticks:   dense  smooth     PW     G-vecs:    dense   smooth      PW
     Min         322      85     25                17398     2399     375
     Max         324      86     26                17399     2402     378
     Sum        5169    1369    401               278369    38401    6031

     Using Slab Decomposition



     bravais-lattice index     =            0
     lattice parameter (alat)  =       5.5533  a.u.
     unit-cell volume          =     171.2590 (a.u.)^3
     number of atoms/cell      =            2
     number of atomic types    =            2
     number of electrons       =        28.00
     number of Kohn-Sham states=           18
     kinetic-energy cutoff     =     140.0000  Ry
     charge density cutoff     =    2100.0000  Ry
     scf convergence threshold =      1.0E-08
     mixing beta               =       0.7000
     number of iterations used =            8  plain     mixing
     Exchange-correlation= PBE
                           (   1   4   3   4   0   0   0)

     celldm(1)=   5.553300  celldm(2)=   0.000000  celldm(3)=   0.000000
     celldm(4)=   0.000000  celldm(5)=   0.000000  celldm(6)=   0.000000

     crystal axes: (cart. coord. in units of alat)
               a(1) = (   1.000000   0.000000   0.000000 )  
               a(2) = (   0.000000   1.000000   0.000000 )  
               a(3) = (   0.000000   0.000000   1.000000 )  

     reciprocal axes: (cart. coord. in units 2 pi/alat)
               b(1) = (  1.000000  0.000000  0.000000 )  
               b(2) = (  0.000000  1.000000  0.000000 )  
               b(3) = (  0.000000  0.000000  1.000000 )  


     PseudoPot. # 1 for Fe read from file:
     ./Fe.pbe-spn-kjpaw_psl.0.2.1.UPF
     MD5 check sum: e86618425769142926afa95317d90200
     Pseudo is Projector augmented-wave + core cor, Zval = 16.0
     Generated using "atomic" code by A. Dal Corso  v.5.0.99 svn rev. 10869
     Shape of augmentation charge: PSQ
     Using radial grid of 1191 points,  6 beta functions with: 
                l(1) =   0
                l(2) =   0
                l(3) =   1
                l(4) =   1
                l(5) =   2
                l(6) =   2
     Q(r) pseudized with 0 coefficients 


     PseudoPot. # 2 for Ti read from file:
     ./Ti_pbe_v1.4.uspp.F.UPF
     MD5 check sum: 88a00a6731bd790ddea75d31a80cb452
     Pseudo is Ultrasoft + core correction, Zval = 12.0
     Generated by new atomic code, or converted to UPF format
     Using radial grid of  851 points,  6 beta functions with: 
                l(1) =   0
                l(2) =   0
                l(3) =   1
                l(4) =   1
                l(5) =   2
                l(6) =   2
     Q(r) pseudized with  6 coefficients,  rinner =    1.000   1.000   1.000
                                                       1.000   1.000

     atomic species   valence    mass     pseudopotential
     Fe               16.00    55.84500     Fe( 1.00)
     Ti               12.00    47.86700     Ti( 1.00)

     48 Sym. Ops., with inversion, found



   Cartesian axes

     site n.     atom                  positions (alat units)
         1        Fe     tau(   1) = (   0.5000000   0.5000000   0.5000000  )
         2        Ti     tau(   2) = (   0.0000000   0.0000000   0.0000000  )

     number of k points=    35  Marzari-Vanderbilt smearing, width (Ry)=  0.0050
                       cart. coord. in units 2pi/alat
        k(    1) = (   0.0000000   0.0000000   0.0000000), wk =   0.0027435
        k(    2) = (   0.0000000   0.0000000   0.1111111), wk =   0.0164609
        k(    3) = (   0.0000000   0.0000000   0.2222222), wk =   0.0164609
        k(    4) = (   0.0000000   0.0000000   0.3333333), wk =   0.0164609
        k(    5) = (   0.0000000   0.0000000   0.4444444), wk =   0.0164609
        k(    6) = (   0.0000000   0.1111111   0.1111111), wk =   0.0329218
        k(    7) = (   0.0000000   0.1111111   0.2222222), wk =   0.0658436
        k(    8) = (   0.0000000   0.1111111   0.3333333), wk =   0.0658436
        k(    9) = (   0.0000000   0.1111111   0.4444444), wk =   0.0658436
        k(   10) = (   0.0000000   0.2222222   0.2222222), wk =   0.0329218
        k(   11) = (   0.0000000   0.2222222   0.3333333), wk =   0.0658436
        k(   12) = (   0.0000000   0.2222222   0.4444444), wk =   0.0658436
        k(   13) = (   0.0000000   0.3333333   0.3333333), wk =   0.0329218
        k(   14) = (   0.0000000   0.3333333   0.4444444), wk =   0.0658436
        k(   15) = (   0.0000000   0.4444444   0.4444444), wk =   0.0329218
        k(   16) = (   0.1111111   0.1111111   0.1111111), wk =   0.0219479
        k(   17) = (   0.1111111   0.1111111   0.2222222), wk =   0.0658436
        k(   18) = (   0.1111111   0.1111111   0.3333333), wk =   0.0658436
        k(   19) = (   0.1111111   0.1111111   0.4444444), wk =   0.0658436
        k(   20) = (   0.1111111   0.2222222   0.2222222), wk =   0.0658436
        k(   21) = (   0.1111111   0.2222222   0.3333333), wk =   0.1316872
        k(   22) = (   0.1111111   0.2222222   0.4444444), wk =   0.1316872
        k(   23) = (   0.1111111   0.3333333   0.3333333), wk =   0.0658436
        k(   24) = (   0.1111111   0.3333333   0.4444444), wk =   0.1316872
        k(   25) = (   0.1111111   0.4444444   0.4444444), wk =   0.0658436
        k(   26) = (   0.2222222   0.2222222   0.2222222), wk =   0.0219479
        k(   27) = (   0.2222222   0.2222222   0.3333333), wk =   0.0658436
        k(   28) = (   0.2222222   0.2222222   0.4444444), wk =   0.0658436
        k(   29) = (   0.2222222   0.3333333   0.3333333), wk =   0.0658436
        k(   30) = (   0.2222222   0.3333333   0.4444444), wk =   0.1316872
        k(   31) = (   0.2222222   0.4444444   0.4444444), wk =   0.0658436
        k(   32) = (   0.3333333   0.3333333   0.3333333), wk =   0.0219479
        k(   33) = (   0.3333333   0.3333333   0.4444444), wk =   0.0658436
        k(   34) = (   0.3333333   0.4444444   0.4444444), wk =   0.0658436
        k(   35) = (   0.4444444   0.4444444   0.4444444), wk =   0.0219479

     Dense  grid:   278369 G-vectors     FFT dimensions: (  81,  81,  81)

     Smooth grid:    38401 G-vectors     FFT dimensions: (  45,  45,  45)

     Estimated max dynamical RAM per process >      74.18 MB

     Estimated total dynamical RAM >       1.16 GB

     Initial potential from superposition of free atoms

     starting charge      26.9995, renormalised to      28.0000

     negative rho (up, down):  1.277E-03 0.000E+00
     Starting wfcs are   23 randomized atomic wfcs
     Checking if some PAW data can be deallocated... 

     total cpu time spent up to now is        1.1 secs

     per-process dynamical memory:   127.6 Mb

     Self-consistent Calculation

     iteration #  1     ecut=   140.00 Ry     beta= 0.70
     Davidson diagonalization with overlap
     ethr =  1.00E-02,  avg # of iterations =  2.1

     negative rho (up, down):  1.104E-04 0.000E+00

     total cpu time spent up to now is        1.8 secs

     WARNING: integrated charge=    28.00054128, expected=    28.00000000

     total energy              =    -434.83547984 Ry
     estimated scf accuracy    <      17.52561875 Ry

     iteration #  2     ecut=   140.00 Ry     beta= 0.70
     Davidson diagonalization with overlap
     ethr =  1.00E-02,  avg # of iterations =  6.1

     negative rho (up, down):  2.913E-05 0.000E+00

     total cpu time spent up to now is        2.8 secs

     WARNING: integrated charge=    28.00041298, expected=    28.00000000

     total energy              =    -448.49248870 Ry
     estimated scf accuracy    <      66.35367527 Ry

     iteration #  3     ecut=   140.00 Ry     beta= 0.70
     Davidson diagonalization with overlap
     ethr =  1.00E-02,  avg # of iterations =  3.1

     negative rho (up, down):  2.518E-04 0.000E+00

     total cpu time spent up to now is        3.6 secs

     WARNING: integrated charge=    28.00032941, expected=    28.00000000

     total energy              =    -448.60291293 Ry
     estimated scf accuracy    <      16.79436307 Ry

     iteration #  4     ecut=   140.00 Ry     beta= 0.70
     Davidson diagonalization with overlap
     ethr =  1.00E-02,  avg # of iterations =  2.1

     negative rho (up, down):  2.850E-04 0.000E+00

     total cpu time spent up to now is        4.3 secs

     WARNING: integrated charge=    28.00031977, expected=    28.00000000

     total energy              =    -449.11727520 Ry
     estimated scf accuracy    <       4.72297000 Ry

     iteration #  5     ecut=   140.00 Ry     beta= 0.70
     Davidson diagonalization with overlap
     ethr =  1.00E-02,  avg # of iterations =  1.0

     negative rho (up, down):  3.540E-04 0.000E+00

     total cpu time spent up to now is        4.9 secs

     WARNING: integrated charge=    28.00029233, expected=    28.00000000

     total energy              =    -449.09267276 Ry
     estimated scf accuracy    <       4.30522272 Ry

     iteration #  6     ecut=   140.00 Ry     beta= 0.70
     Davidson diagonalization with overlap
     ethr =  1.00E-02,  avg # of iterations =  1.1

     negative rho (up, down):  1.050E-03 0.000E+00

     total cpu time spent up to now is        5.5 secs

     WARNING: integrated charge=    28.00014744, expected=    28.00000000

     total energy              =    -447.92419462 Ry
     estimated scf accuracy    <       4.54944005 Ry

     iteration #  7     ecut=   140.00 Ry     beta= 0.70
     Davidson diagonalization with overlap
     ethr =  1.00E-02,  avg # of iterations =  3.3

     negative rho (up, down):  1.030E-03 0.000E+00

     total cpu time spent up to now is        6.2 secs

     WARNING: integrated charge=    28.00014453, expected=    28.00000000

     total energy              =    -448.70404277 Ry
     estimated scf accuracy    <       3.20297388 Ry

     iteration #  8     ecut=   140.00 Ry     beta= 0.70
     Davidson diagonalization with overlap
     ethr =  1.00E-02,  avg # of iterations =  1.0

     negative rho (up, down):  1.162E-03 0.000E+00

     total cpu time spent up to now is        6.8 secs

     WARNING: integrated charge=    28.00010498, expected=    28.00000000

     total energy              =    -448.71033926 Ry
     estimated scf accuracy    <       2.83332311 Ry

     iteration #  9     ecut=   140.00 Ry     beta= 0.70
     Davidson diagonalization with overlap
     ethr =  1.00E-02,  avg # of iterations =  1.0

     negative rho (up, down):  9.169E-04 0.000E+00

     total cpu time spent up to now is        7.4 secs

     WARNING: integrated charge=    28.00014339, expected=    28.00000000

     total energy              =    -448.74171454 Ry
     estimated scf accuracy    <       2.78071645 Ry

     iteration # 10     ecut=   140.00 Ry     beta= 0.70
     Davidson diagonalization with overlap
     ethr =  9.93E-03,  avg # of iterations =  1.0

     negative rho (up, down):  1.057E-03 0.000E+00

     total cpu time spent up to now is        8.0 secs

     WARNING: integrated charge=    28.00006838, expected=    28.00000000

     total energy              =    -448.71409210 Ry
     estimated scf accuracy    <       3.22819639 Ry

     iteration # 11     ecut=   140.00 Ry     beta= 0.70
     Davidson diagonalization with overlap
     ethr =  9.93E-03,  avg # of iterations =  1.0

     negative rho (up, down):  1.984E-04 0.000E+00

     total cpu time spent up to now is        8.6 secs

     WARNING: integrated charge=    28.00004071, expected=    28.00000000

     total energy              =    -448.48896485 Ry
     estimated scf accuracy    <       2.80716456 Ry

     iteration # 12     ecut=   140.00 Ry     beta= 0.70
     Davidson diagonalization with overlap
     ethr =  9.93E-03,  avg # of iterations =  1.0

     negative rho (up, down):  8.491E-04 0.000E+00

     total cpu time spent up to now is        9.2 secs

     WARNING: integrated charge=    28.00007809, expected=    28.00000000

     total energy              =    -448.55609727 Ry
     estimated scf accuracy    <       0.13834275 Ry

     iteration # 13     ecut=   140.00 Ry     beta= 0.70
     Davidson diagonalization with overlap
     ethr =  4.94E-04,  avg # of iterations =  4.3

     negative rho (up, down):  1.616E-05 0.000E+00

     total cpu time spent up to now is        9.9 secs

     WARNING: integrated charge=    28.00009227, expected=    28.00000000

     total energy              =    -448.69397428 Ry
     estimated scf accuracy    <       0.15747665 Ry

     iteration # 14     ecut=   140.00 Ry     beta= 0.70
     Davidson diagonalization with overlap
     ethr =  4.94E-04,  avg # of iterations =  4.1

     negative rho (up, down):  1.481E-04 0.000E+00

     total cpu time spent up to now is       10.7 secs

     WARNING: integrated charge=    28.00001822, expected=    28.00000000

     total energy              =    -448.82217484 Ry
     estimated scf accuracy    <       1.54314269 Ry

     iteration # 15     ecut=   140.00 Ry     beta= 0.70
     Davidson diagonalization with overlap
     ethr =  4.94E-04,  avg # of iterations =  1.1

     negative rho (up, down):  7.593E-05 0.000E+00

     total cpu time spent up to now is       11.3 secs

     WARNING: integrated charge=    28.00001755, expected=    28.00000000

     total energy              =    -448.72164231 Ry
     estimated scf accuracy    <       1.75856276 Ry

     iteration # 16     ecut=   140.00 Ry     beta= 0.70
     Davidson diagonalization with overlap
     ethr =  4.94E-04,  avg # of iterations =  1.0

     negative rho (up, down):  5.571E-04 0.000E+00

     total cpu time spent up to now is       11.9 secs

     WARNING: integrated charge=    28.00001040, expected=    28.00000000

     total energy              =    -448.70594042 Ry
     estimated scf accuracy    <       1.23225605 Ry

     iteration # 17     ecut=   140.00 Ry     beta= 0.70
     Davidson diagonalization with overlap
     ethr =  4.94E-04,  avg # of iterations =  2.1

     negative rho (up, down):  1.274E-03 0.000E+00

     total cpu time spent up to now is       12.5 secs

     WARNING: integrated charge=    28.00000917, expected=    28.00000000

     total energy              =    -448.32309061 Ry
     estimated scf accuracy    <       0.91313670 Ry

     iteration # 18     ecut=   140.00 Ry     beta= 0.70
     Davidson diagonalization with overlap
     ethr =  4.94E-04,  avg # of iterations =  5.6

     negative rho (up, down):  7.754E-04 0.000E+00

     total cpu time spent up to now is       13.4 secs

     WARNING: integrated charge=    28.00002402, expected=    28.00000000

     total energy              =    -448.15834687 Ry
     estimated scf accuracy    <       7.56335478 Ry

     iteration # 19     ecut=   140.00 Ry     beta= 0.70
     Davidson diagonalization with overlap
     ethr =  4.94E-04,  avg # of iterations =  5.1

     negative rho (up, down):  7.502E-04 0.000E+00

     total cpu time spent up to now is       14.3 secs

     WARNING: integrated charge=    28.00000481, expected=    28.00000000

     total energy              =    -448.59055893 Ry
     estimated scf accuracy    <       0.01903625 Ry

     iteration # 20     ecut=   140.00 Ry     beta= 0.70
     Davidson diagonalization with overlap
     ethr =  6.80E-05,  avg # of iterations =  2.4

     negative rho (up, down):  9.853E-04 0.000E+00

     total cpu time spent up to now is       14.9 secs

     WARNING: integrated charge=    27.99999392, expected=    28.00000000

     total energy              =    -448.57943129 Ry
     estimated scf accuracy    <       0.03187708 Ry

     iteration # 21     ecut=   140.00 Ry     beta= 0.70
     Davidson diagonalization with overlap
     ethr =  6.80E-05,  avg # of iterations =  3.9

     negative rho (up, down):  9.051E-04 0.000E+00

     total cpu time spent up to now is       15.7 secs

     WARNING: integrated charge=    27.99999575, expected=    28.00000000

     total energy              =    -448.58452735 Ry
     estimated scf accuracy    <       0.02444299 Ry

     iteration # 22     ecut=   140.00 Ry     beta= 0.70
     Davidson diagonalization with overlap
     ethr =  6.80E-05,  avg # of iterations =  1.7

     negative rho (up, down):  8.908E-04 0.000E+00

     total cpu time spent up to now is       16.3 secs

     total energy              =    -448.58652630 Ry
     estimated scf accuracy    <       0.00003664 Ry

     iteration # 23     ecut=   140.00 Ry     beta= 0.70
     Davidson diagonalization with overlap
     c_bands:  1 eigenvalues not converged
     ethr =  1.31E-07,  avg # of iterations =  7.2

     negative rho (up, down):  9.213E-04 0.000E+00

     total cpu time spent up to now is       17.4 secs

     total energy              =    -448.58621752 Ry
     estimated scf accuracy    <       0.00574375 Ry

     iteration # 24     ecut=   140.00 Ry     beta= 0.70
     Davidson diagonalization with overlap
     ethr =  1.31E-07,  avg # of iterations =  5.7

     negative rho (up, down):  9.154E-04 0.000E+00

     total cpu time spent up to now is       18.2 secs

     total energy              =    -448.58659013 Ry
     estimated scf accuracy    <       0.00002035 Ry

     iteration # 25     ecut=   140.00 Ry     beta= 0.70
     Davidson diagonalization with overlap
     ethr =  7.27E-08,  avg # of iterations =  4.0

     negative rho (up, down):  9.236E-04 0.000E+00

     total cpu time spent up to now is       19.0 secs

     total energy              =    -448.58656618 Ry
     estimated scf accuracy    <       0.00024138 Ry

     iteration # 26     ecut=   140.00 Ry     beta= 0.70
     Davidson diagonalization with overlap
     ethr =  7.27E-08,  avg # of iterations =  4.0

     negative rho (up, down):  9.240E-04 0.000E+00

     total cpu time spent up to now is       19.8 secs

     total energy              =    -448.58658357 Ry
     estimated scf accuracy    <       0.00000003 Ry

     iteration # 27     ecut=   140.00 Ry     beta= 0.70
     Davidson diagonalization with overlap
     ethr =  1.22E-10,  avg # of iterations =  6.2

     negative rho (up, down):  9.240E-04 0.000E+00

     total cpu time spent up to now is       20.7 secs

     total energy              =    -448.58658369 Ry
     estimated scf accuracy    <       0.00000013 Ry

     iteration # 28     ecut=   140.00 Ry     beta= 0.70
     Davidson diagonalization with overlap
     ethr =  1.22E-10,  avg # of iterations =  1.2

     negative rho (up, down):  9.240E-04 0.000E+00

     total cpu time spent up to now is       21.3 secs

     total energy              =    -448.58658369 Ry
     estimated scf accuracy    <       0.00000002 Ry

     iteration # 29     ecut=   140.00 Ry     beta= 0.70
     Davidson diagonalization with overlap
     ethr =  7.27E-11,  avg # of iterations =  2.8

     negative rho (up, down):  9.240E-04 0.000E+00

     total cpu time spent up to now is       22.0 secs

     End of self-consistent calculation

          k = 0.0000 0.0000 0.0000 (  4801 PWs)   bands (ev):

   -69.2041 -39.1408 -35.2660 -35.2660 -35.2660 -15.2356 -15.2356 -15.2356
    10.1529  13.8668  13.8668  16.6615  16.6615  16.6615  19.0045  19.0045
    20.9450  20.9450

          k = 0.0000 0.0000 0.1111 (  4821 PWs)   bands (ev):

   -69.2037 -39.1376 -35.2697 -35.2654 -35.2654 -15.2788 -15.2331 -15.2331
    10.4101  13.9907  13.9987  16.6430  16.6430  16.7176  18.8473  19.0621
    20.5824  20.5824

          k = 0.0000 0.0000 0.2222 (  4801 PWs)   bands (ev):

   -69.2027 -39.1297 -35.2790 -35.2640 -35.2640 -15.3868 -15.2265 -15.2265
    11.1436  14.3128  14.3486  16.6064  16.6064  16.8690  18.4024  19.1657
    19.8173  19.8173

          k = 0.0000 0.0000 0.3333 (  4789 PWs)   bands (ev):

   -69.2015 -39.1207 -35.2896 -35.2623 -35.2623 -15.5078 -15.2191 -15.2191
    12.2344  14.5612  14.8884  16.5885  16.5885  17.0615  17.7586  19.0700
    19.0900  19.0900

          k = 0.0000 0.0000 0.4444 (  4805 PWs)   bands (ev):

   -69.2007 -39.1148 -35.2964 -35.2613 -35.2613 -15.5858 -15.2142 -15.2142
    13.4362  14.3573  15.4424  16.5971  16.5971  17.1342  17.2029  18.6544
    18.6544  18.6887

          k = 0.0000 0.1111 0.1111 (  4805 PWs)   bands (ev):

   -69.2033 -39.1342 -35.2711 -35.2677 -35.2649 -15.2800 -15.2712 -15.2303
    10.6595  14.1027  14.1345  16.5212  16.6076  16.8505  18.8365  19.0205
    20.2146  20.2229

          k = 0.0000 0.1111 0.2222 (  4791 PWs)   bands (ev):

   -69.2023 -39.1256 -35.2799 -35.2679 -35.2635 -15.3825 -15.2671 -15.2233
    11.3672  14.3908  14.4887  16.4127  16.5286  16.9761  18.5221  19.1066
    19.5189  19.6218

          k = 0.0000 0.1111 0.3333 (  4791 PWs)   bands (ev):

   -69.2011 -39.1158 -35.2907 -35.2673 -35.2618 -15.5016 -15.2582 -15.2154
    12.4071  14.6302  14.9694  16.3813  16.4517  16.9784  18.0219  18.7289
    19.1997  19.2931

          k = 0.0000 0.1111 0.4444 (  4805 PWs)   bands (ev):

   -69.2003 -39.1094 -35.2977 -35.2669 -35.2608 -15.5784 -15.2523 -15.2102
    13.5282  14.4159  15.4511  16.3728  16.4280  16.8600  17.6152  18.3322
    19.0623  19.1221

          k = 0.0000 0.2222 0.2222 (  4791 PWs)   bands (ev):

   -69.2012 -39.1151 -35.2839 -35.2758 -35.2621 -15.3806 -15.3601 -15.2153
    11.9851  14.5178  14.9058  16.1679  16.3907  16.9253  18.6821  18.9278
    19.0775  19.4447

          k = 0.0000 0.2222 0.3333 (  4797 PWs)   bands (ev):

   -69.2001 -39.1033 -35.2937 -35.2796 -35.2606 -15.4861 -15.3562 -15.2061
    12.8342  14.5595  15.4148  16.0315  16.3566  16.6322  18.4523  18.5679
    19.2725  19.5512

          k = 0.0000 0.2222 0.4444 (  4798 PWs)   bands (ev):

   -69.1993 -39.0955 -35.3012 -35.2810 -35.2596 -15.5598 -15.3480 -15.2000
    13.6333  14.3473  15.7686  16.0520  16.3090  16.5254  18.1621  18.3866
    19.4419  19.7734

          k = 0.0000 0.3333 0.3333 (  4773 PWs)   bands (ev):

   -69.1989 -39.0890 -35.2986 -35.2922 -35.2591 -15.4751 -15.4594 -15.1954
    13.2771  14.3424  15.7743  16.0818  16.1900  16.5974  18.4984  18.9570
    19.1303  20.0105

          k = 0.0000 0.3333 0.4444 (  4797 PWs)   bands (ev):

   -69.1982 -39.0796 -35.3052 -35.2970 -35.2582 -15.5386 -15.4552 -15.1885
    13.5431  14.1320  15.7014  15.8512  16.5379  17.2527  18.2578  19.0235
    19.3898  20.4025

          k = 0.0000 0.4444 0.4444 (  4768 PWs)   bands (ev):

   -69.1974 -39.0692 -35.3081 -35.3071 -35.2573 -15.5258 -15.5233 -15.1809
    13.4110  13.9879  15.5239  15.5746  17.4120  17.8950  18.6533  18.8990
    19.4000  20.7933

          k = 0.1111 0.1111 0.1111 (  4800 PWs)   bands (ev):

   -69.2029 -39.1306 -35.2705 -35.2705 -35.2660 -15.2799 -15.2685 -15.2685
    10.9028  14.2397  14.2397  16.4825  16.4825  16.9329  18.9192  18.9192
    19.6872  20.5509

          k = 0.1111 0.1111 0.2222 (  4798 PWs)   bands (ev):

   -69.2019 -39.1214 -35.2802 -35.2690 -35.2664 -15.3782 -15.2657 -15.2618
    11.5900  14.5391  14.5601  16.3346  16.3838  16.9340  18.6337  19.0554
    19.2933  19.7870

          k = 0.1111 0.1111 0.3333 (  4800 PWs)   bands (ev):

   -69.2007 -39.1109 -35.2915 -35.2673 -35.2665 -15.4958 -15.2549 -15.2541
    12.5887  14.7777  14.9749  16.2511  16.3095  16.7823  18.2364  18.8267
    19.0883  19.4696

          k = 0.1111 0.1111 0.4444 (  4800 PWs)   bands (ev):

   -69.1999 -39.1040 -35.2988 -35.2665 -35.2662 -15.5716 -15.2491 -15.2478
    13.6445  14.5217  15.4012  16.0883  16.4642  16.6557  17.9098  18.4426
    18.6927  19.7758

          k = 0.1111 0.2222 0.2222 (  4790 PWs)   bands (ev):

   -69.2008 -39.1107 -35.2833 -35.2767 -35.2666 -15.3751 -15.3573 -15.2550
    12.2043  14.6853  14.9560  16.1097  16.2317  16.6656  18.7808  19.0554
    19.1789  19.5654

          k = 0.1111 0.2222 0.3333 (  4796 PWs)   bands (ev):

   -69.1997 -39.0985 -35.2937 -35.2795 -35.2658 -15.4810 -15.3525 -15.2451
    13.0401  14.7476  15.3797  15.9600  16.1842  16.3783  18.6603  18.7091
    19.1638  19.8257

          k = 0.1111 0.2222 0.4444 (  4800 PWs)   bands (ev):

   -69.1989 -39.0905 -35.3017 -35.2804 -35.2651 -15.5543 -15.3444 -15.2386
    13.8090  14.5241  15.5936  15.8928  16.2207  16.4967  18.2710  18.5493
    18.9339  20.4573

          k = 0.1111 0.3333 0.3333 (  4787 PWs)   bands (ev):

   -69.1985 -39.0843 -35.2978 -35.2924 -35.2645 -15.4701 -15.4566 -15.2344
    13.4983  14.5253  15.7244  16.0002  16.0455  16.3675  18.5346  19.0227
    19.1244  20.3728

          k = 0.1111 0.3333 0.4444 (  4784 PWs)   bands (ev):

   -69.1978 -39.0750 -35.3049 -35.2964 -35.2636 -15.5346 -15.4520 -15.2274
    13.7459  14.3194  15.6446  15.7440  16.4459  17.0248  18.2490  18.9232
    19.2084  20.7257

          k = 0.1111 0.4444 0.4444 (  4772 PWs)   bands (ev):

   -69.1970 -39.0649 -35.3074 -35.3065 -35.2627 -15.5226 -15.5205 -15.2200
    13.6145  14.1772  15.4905  15.5315  17.3097  17.6413  18.3852  18.4777
    19.5190  20.9965

          k = 0.2222 0.2222 0.2222 (  4800 PWs)   bands (ev):

   -69.1998 -39.0993 -35.2816 -35.2816 -35.2753 -15.3659 -15.3502 -15.3502
    12.8008  15.0891  15.0891  15.9657  15.9657  16.1367  18.9757  18.9757
    19.7332  19.8016

          k = 0.2222 0.2222 0.3333 (  4793 PWs)   bands (ev):

   -69.1987 -39.0863 -35.2941 -35.2798 -35.2782 -15.4682 -15.3441 -15.3422
    13.5720  15.2105  15.2562  15.8007  15.8791  15.9764  18.8094  18.8383
    19.2744  20.2072

          k = 0.2222 0.2222 0.4444 (  4788 PWs)   bands (ev):

   -69.1979 -39.0778 -35.3028 -35.2795 -35.2785 -15.5403 -15.3370 -15.3338
    14.1884  14.8272  15.3912  15.6744  16.0217  16.3835  18.3151  18.6274
    19.0635  20.5594

          k = 0.2222 0.3333 0.3333 (  4791 PWs)   bands (ev):

   -69.1975 -39.0724 -35.2960 -35.2927 -35.2781 -15.4574 -15.4494 -15.3323
    14.1080  14.9633  15.6086  15.6569  15.8760  15.9301  18.5788  18.7297
    19.5873  20.3141

          k = 0.2222 0.3333 0.4444 (  4790 PWs)   bands (ev):

   -69.1968 -39.0634 -35.3043 -35.2948 -35.2774 -15.5244 -15.4439 -15.3251
    14.2951  14.7586  15.5185  15.5651  16.1327  16.5574  18.2058  18.5103
    19.6338  20.6967

          k = 0.2222 0.4444 0.4444 (  4769 PWs)   bands (ev):

   -69.1961 -39.0539 -35.3054 -35.3049 -35.2763 -15.5146 -15.5134 -15.3183
    14.1815  14.6483  15.4206  15.4503  16.8820  16.9026  18.0404  18.2421
    19.9145  21.0511

          k = 0.3333 0.3333 0.3333 (  4797 PWs)   bands (ev):

   -69.1964 -39.0589 -35.2940 -35.2940 -35.2927 -15.4437 -15.4412 -15.4412
    14.8408  15.1325  15.5030  15.5030  15.7488  15.7488  18.4423  18.4423
    20.2354  20.2354

          k = 0.3333 0.3333 0.4444 (  4783 PWs)   bands (ev):

   -69.1957 -39.0500 -35.3036 -35.2934 -35.2926 -15.5129 -15.4359 -15.4334
    14.8623  15.0703  15.4789  15.5726  15.7994  16.2221  18.0781  18.2967
    20.2288  20.7867

          k = 0.3333 0.4444 0.4444 (  4769 PWs)   bands (ev):

   -69.1949 -39.0413 -35.3032 -35.3031 -35.2918 -15.5055 -15.5052 -15.4286
    14.9323  15.1371  15.3877  15.4789  16.1952  16.2708  17.9125  18.1057
    20.5427  21.0944

          k = 0.4444 0.4444 0.4444 (  4758 PWs)   bands (ev):

   -69.1942 -39.0331 -35.3020 -35.3018 -35.3018 -15.4999 -15.4999 -15.4993
    15.2787  15.4657  15.4657  15.7970  15.7970  15.8049  17.8842  17.8842
    21.1207  21.1207

     the Fermi energy is    17.6491 ev

!    total energy              =    -448.58658369 Ry
     estimated scf accuracy    <          2.0E-09 Ry
     smearing contrib. (-TS)   =      -0.00008113 Ry
     internal energy E=F+TS    =    -448.58650256 Ry

     The total energy is F=E-TS. E is the sum of the following terms:
     one-electron contribution =    -151.35247548 Ry
     hartree contribution      =      91.62954970 Ry
     xc contribution           =     -52.88912974 Ry
     ewald contribution        =    -259.82070277 Ry
     one-center paw contrib.   =     -76.15374426 Ry

     convergence has been achieved in  29 iterations

     negative rho (up, down):  9.240E-04 0.000E+00

     Forces acting on atoms (cartesian axes, Ry/au):

     atom    1 type  1   force =     0.00000000    0.00000000    0.00000000
     atom    2 type  2   force =     0.00000000    0.00000000    0.00000000

     Total force =     0.000000     Total SCF correction =     0.000000


     Computing stress (Cartesian axis) and pressure


     negative rho (up, down):  9.240E-04 0.000E+00
          total   stress  (Ry/bohr**3)                   (kbar)     P=       31.68
   0.00021538   0.00000000   0.00000000           31.68        0.00        0.00
   0.00000000   0.00021538   0.00000000            0.00       31.68        0.00
   0.00000000   0.00000000   0.00021538            0.00        0.00       31.68


     Writing all to output data dir ./TiFe.save/ :
     XML data file, charge density, pseudopotentials, collected wavefunctions

     init_run     :      0.80s CPU      0.84s WALL (       1 calls)
     electrons    :     19.90s CPU     21.04s WALL (       1 calls)
     forces       :      0.16s CPU      0.18s WALL (       1 calls)
     stress       :      0.87s CPU      0.92s WALL (       1 calls)

     Called by init_run:
     wfcinit      :      0.18s CPU      0.19s WALL (       1 calls)
     potinit      :      0.16s CPU      0.17s WALL (       1 calls)
     hinit0       :      0.16s CPU      0.17s WALL (       1 calls)

     Called by electrons:
     c_bands      :     11.16s CPU     11.43s WALL (      29 calls)
     sum_band     :      4.71s CPU      5.08s WALL (      29 calls)
     v_of_rho     :      0.48s CPU      0.53s WALL (      30 calls)
     newd         :      2.46s CPU      2.76s WALL (      30 calls)
     PAW_pot      :      1.08s CPU      1.12s WALL (      30 calls)
     mix_rho      :      0.06s CPU      0.07s WALL (      29 calls)

     Called by c_bands:
     init_us_2    :      0.17s CPU      0.18s WALL (    2135 calls)
     cegterg      :     10.79s CPU     11.04s WALL (    1015 calls)

     Called by *egterg:
     cdiaghg      :      1.23s CPU      1.25s WALL (    4034 calls)
     h_psi        :      8.61s CPU      8.83s WALL (    4069 calls)
     s_psi        :      0.14s CPU      0.14s WALL (    4069 calls)
     g_psi        :      0.03s CPU      0.03s WALL (    3019 calls)

     Called by h_psi:
     h_psi:calbec :      0.31s CPU      0.32s WALL (    4069 calls)
     vloc_psi     :      8.13s CPU      8.34s WALL (    4069 calls)
     add_vuspsi   :      0.14s CPU      0.15s WALL (    4069 calls)

     General routines
     calbec       :      0.44s CPU      0.45s WALL (    5679 calls)
     fft          :      0.43s CPU      0.51s WALL (     413 calls)
     ffts         :      0.11s CPU      0.12s WALL (      59 calls)
     fftw         :      8.32s CPU      8.53s WALL (  116586 calls)
     interpolate  :      0.14s CPU      0.15s WALL (      30 calls)

     Parallel routines

     PWSCF        :     22.00s CPU     24.73s WALL


   This run was terminated on:  10:53:55  28Oct2025            

=------------------------------------------------------------------------------=
   JOB DONE.
=------------------------------------------------------------------------------=
Note: The following floating-point exceptions are signalling: IEEE_UNDERFLOW_FLAG IEEE_DENORMAL
Note: The following floating-point exceptions are signalling: IEEE_UNDERFLOW_FLAG IEEE_DENORMAL
Note: The following floating-point exceptions are signalling: IEEE_UNDERFLOW_FLAG IEEE_DENORMAL
Note: The following floating-point exceptions are signalling: IEEE_UNDERFLOW_FLAG IEEE_DENORMAL
Note: The following floating-point exceptions are signalling: IEEE_UNDERFLOW_FLAG IEEE_DENORMAL
Note: The following floating-point exceptions are signalling: IEEE_UNDERFLOW_FLAG IEEE_DENORMAL
Note: The following floating-point exceptions are signalling: IEEE_UNDERFLOW_FLAG IEEE_DENORMAL
Note: The following floating-point exceptions are signalling: IEEE_UNDERFLOW_FLAG IEEE_DENORMAL
Note: The following floating-point exceptions are signalling: IEEE_UNDERFLOW_FLAG IEEE_DENORMAL
Note: The following floating-point exceptions are signalling: IEEE_UNDERFLOW_FLAG IEEE_DENORMAL
Note: The following floating-point exceptions are signalling: IEEE_UNDERFLOW_FLAG IEEE_DENORMAL
Note: The following floating-point exceptions are signalling: IEEE_UNDERFLOW_FLAG IEEE_DENORMAL
Note: The following floating-point exceptions are signalling: IEEE_UNDERFLOW_FLAG IEEE_DENORMAL
Note: The following floating-point exceptions are signalling: IEEE_UNDERFLOW_FLAG IEEE_DENORMAL
Note: The following floating-point exceptions are signalling: IEEE_UNDERFLOW_FLAG IEEE_DENORMAL
Note: The following floating-point exceptions are signalling: IEEE_UNDERFLOW_FLAG IEEE_DENORMAL
