
     Program PWSCF v.7.4 starts on 28Oct2025 at 10:53: 9 

     This program is part of the open-source Quantum ESPRESSO suite
     for quantum simulation of materials; please cite
         "P. Giannozzi et al., J. Phys.:Condens. Matter 21 395502 (2009);
         "P. Giannozzi et al., J. Phys.:Condens. Matter 29 465901 (2017);
         "P. Giannozzi et al., J. Chem. Phys. 152 154105 (2020);
          URL http://www.quantum-espresso.org", 
     in publications or presentations arising from this work. More details at
     http://www.quantum-espresso.org/quote

     Parallel version (MPI & OpenMP), running on      16 processor cores
     Number of MPI processes:                16
     Threads/MPI process:                     1

     MPI processes distributed on     1 nodes
     230689 MiB available memory on the printing compute node when the environment starts

     Reading input from TiFe_ecutrho_convergence/TiFe2_factor12.in

     Current dimensions of program PWSCF are:
     Max number of different atomic species (ntypx) = 10
     Max number of k-points (npk) =  40000
     Max angular momentum in pseudopotentials (lmaxx) =  4
     file Fe.pbe-spn-kjpaw_psl.0.2.1.UPF: wavefunction(s)  3D renormalized

     IMPORTANT: XC functional enforced from input :
     Exchange-correlation= PBE
                           (   1   4   3   4   0   0   0)
     Any further DFT definition will be discarded
     Please, verify this is what you really want

     Message from routine setup:
     using ibrav=0 with symmetry is DISCOURAGED, use correct ibrav instead

     R & G space division:  proc/nbgrp/npool/nimage =      16
     Subspace diagonalization in iterative solution of the eigenvalue problem:
     a serial algorithm will be used


     Parallelization info
     --------------------
     sticks:   dense  smooth     PW     G-vecs:    dense   smooth      PW
     Min         257      85     25                12432     2399     375
     Max         259      86     26                12436     2402     378
     Sum        4125    1369    401               198941    38401    6031

     Using Slab Decomposition



     bravais-lattice index     =            0
     lattice parameter (alat)  =       5.5533  a.u.
     unit-cell volume          =     171.2590 (a.u.)^3
     number of atoms/cell      =            2
     number of atomic types    =            2
     number of electrons       =        28.00
     number of Kohn-Sham states=           18
     kinetic-energy cutoff     =     140.0000  Ry
     charge density cutoff     =    1680.0000  Ry
     scf convergence threshold =      1.0E-08
     mixing beta               =       0.7000
     number of iterations used =            8  plain     mixing
     Exchange-correlation= PBE
                           (   1   4   3   4   0   0   0)

     celldm(1)=   5.553300  celldm(2)=   0.000000  celldm(3)=   0.000000
     celldm(4)=   0.000000  celldm(5)=   0.000000  celldm(6)=   0.000000

     crystal axes: (cart. coord. in units of alat)
               a(1) = (   1.000000   0.000000   0.000000 )  
               a(2) = (   0.000000   1.000000   0.000000 )  
               a(3) = (   0.000000   0.000000   1.000000 )  

     reciprocal axes: (cart. coord. in units 2 pi/alat)
               b(1) = (  1.000000  0.000000  0.000000 )  
               b(2) = (  0.000000  1.000000  0.000000 )  
               b(3) = (  0.000000  0.000000  1.000000 )  


     PseudoPot. # 1 for Fe read from file:
     ./Fe.pbe-spn-kjpaw_psl.0.2.1.UPF
     MD5 check sum: e86618425769142926afa95317d90200
     Pseudo is Projector augmented-wave + core cor, Zval = 16.0
     Generated using "atomic" code by A. Dal Corso  v.5.0.99 svn rev. 10869
     Shape of augmentation charge: PSQ
     Using radial grid of 1191 points,  6 beta functions with: 
                l(1) =   0
                l(2) =   0
                l(3) =   1
                l(4) =   1
                l(5) =   2
                l(6) =   2
     Q(r) pseudized with 0 coefficients 


     PseudoPot. # 2 for Ti read from file:
     ./Ti_pbe_v1.4.uspp.F.UPF
     MD5 check sum: 88a00a6731bd790ddea75d31a80cb452
     Pseudo is Ultrasoft + core correction, Zval = 12.0
     Generated by new atomic code, or converted to UPF format
     Using radial grid of  851 points,  6 beta functions with: 
                l(1) =   0
                l(2) =   0
                l(3) =   1
                l(4) =   1
                l(5) =   2
                l(6) =   2
     Q(r) pseudized with  6 coefficients,  rinner =    1.000   1.000   1.000
                                                       1.000   1.000

     atomic species   valence    mass     pseudopotential
     Fe               16.00    55.84500     Fe( 1.00)
     Ti               12.00    47.86700     Ti( 1.00)

     48 Sym. Ops., with inversion, found



   Cartesian axes

     site n.     atom                  positions (alat units)
         1        Fe     tau(   1) = (   0.5000000   0.5000000   0.5000000  )
         2        Ti     tau(   2) = (   0.0000000   0.0000000   0.0000000  )

     number of k points=    35  Marzari-Vanderbilt smearing, width (Ry)=  0.0050
                       cart. coord. in units 2pi/alat
        k(    1) = (   0.0000000   0.0000000   0.0000000), wk =   0.0027435
        k(    2) = (   0.0000000   0.0000000   0.1111111), wk =   0.0164609
        k(    3) = (   0.0000000   0.0000000   0.2222222), wk =   0.0164609
        k(    4) = (   0.0000000   0.0000000   0.3333333), wk =   0.0164609
        k(    5) = (   0.0000000   0.0000000   0.4444444), wk =   0.0164609
        k(    6) = (   0.0000000   0.1111111   0.1111111), wk =   0.0329218
        k(    7) = (   0.0000000   0.1111111   0.2222222), wk =   0.0658436
        k(    8) = (   0.0000000   0.1111111   0.3333333), wk =   0.0658436
        k(    9) = (   0.0000000   0.1111111   0.4444444), wk =   0.0658436
        k(   10) = (   0.0000000   0.2222222   0.2222222), wk =   0.0329218
        k(   11) = (   0.0000000   0.2222222   0.3333333), wk =   0.0658436
        k(   12) = (   0.0000000   0.2222222   0.4444444), wk =   0.0658436
        k(   13) = (   0.0000000   0.3333333   0.3333333), wk =   0.0329218
        k(   14) = (   0.0000000   0.3333333   0.4444444), wk =   0.0658436
        k(   15) = (   0.0000000   0.4444444   0.4444444), wk =   0.0329218
        k(   16) = (   0.1111111   0.1111111   0.1111111), wk =   0.0219479
        k(   17) = (   0.1111111   0.1111111   0.2222222), wk =   0.0658436
        k(   18) = (   0.1111111   0.1111111   0.3333333), wk =   0.0658436
        k(   19) = (   0.1111111   0.1111111   0.4444444), wk =   0.0658436
        k(   20) = (   0.1111111   0.2222222   0.2222222), wk =   0.0658436
        k(   21) = (   0.1111111   0.2222222   0.3333333), wk =   0.1316872
        k(   22) = (   0.1111111   0.2222222   0.4444444), wk =   0.1316872
        k(   23) = (   0.1111111   0.3333333   0.3333333), wk =   0.0658436
        k(   24) = (   0.1111111   0.3333333   0.4444444), wk =   0.1316872
        k(   25) = (   0.1111111   0.4444444   0.4444444), wk =   0.0658436
        k(   26) = (   0.2222222   0.2222222   0.2222222), wk =   0.0219479
        k(   27) = (   0.2222222   0.2222222   0.3333333), wk =   0.0658436
        k(   28) = (   0.2222222   0.2222222   0.4444444), wk =   0.0658436
        k(   29) = (   0.2222222   0.3333333   0.3333333), wk =   0.0658436
        k(   30) = (   0.2222222   0.3333333   0.4444444), wk =   0.1316872
        k(   31) = (   0.2222222   0.4444444   0.4444444), wk =   0.0658436
        k(   32) = (   0.3333333   0.3333333   0.3333333), wk =   0.0219479
        k(   33) = (   0.3333333   0.3333333   0.4444444), wk =   0.0658436
        k(   34) = (   0.3333333   0.4444444   0.4444444), wk =   0.0658436
        k(   35) = (   0.4444444   0.4444444   0.4444444), wk =   0.0219479

     Dense  grid:   198941 G-vectors     FFT dimensions: (  75,  75,  75)

     Smooth grid:    38401 G-vectors     FFT dimensions: (  45,  45,  45)

     Estimated max dynamical RAM per process >      55.23 MB

     Estimated total dynamical RAM >     883.66 MB

     Check: negative core charge=   -0.000001

     Initial potential from superposition of free atoms

     starting charge      26.9995, renormalised to      28.0000

     negative rho (up, down):  1.362E-03 0.000E+00
     Starting wfcs are   23 randomized atomic wfcs
     Checking if some PAW data can be deallocated... 

     total cpu time spent up to now is        1.0 secs

     per-process dynamical memory:   124.9 Mb

     Self-consistent Calculation

     iteration #  1     ecut=   140.00 Ry     beta= 0.70
     Davidson diagonalization with overlap
     ethr =  1.00E-02,  avg # of iterations =  2.1

     negative rho (up, down):  8.014E-05 0.000E+00

     total cpu time spent up to now is        1.6 secs

     WARNING: integrated charge=    28.00074363, expected=    28.00000000

     total energy              =    -434.87056570 Ry
     estimated scf accuracy    <      17.48678795 Ry

     iteration #  2     ecut=   140.00 Ry     beta= 0.70
     Davidson diagonalization with overlap
     ethr =  1.00E-02,  avg # of iterations =  6.1

     negative rho (up, down):  2.271E-05 0.000E+00

     total cpu time spent up to now is        2.5 secs

     WARNING: integrated charge=    28.00056732, expected=    28.00000000

     total energy              =    -448.51791072 Ry
     estimated scf accuracy    <      66.14650895 Ry

     iteration #  3     ecut=   140.00 Ry     beta= 0.70
     Davidson diagonalization with overlap
     ethr =  1.00E-02,  avg # of iterations =  3.1

     negative rho (up, down):  2.379E-04 0.000E+00

     total cpu time spent up to now is        3.2 secs

     WARNING: integrated charge=    28.00045255, expected=    28.00000000

     total energy              =    -448.59540486 Ry
     estimated scf accuracy    <      16.78608193 Ry

     iteration #  4     ecut=   140.00 Ry     beta= 0.70
     Davidson diagonalization with overlap
     ethr =  1.00E-02,  avg # of iterations =  2.2

     negative rho (up, down):  2.775E-04 0.000E+00

     total cpu time spent up to now is        3.8 secs

     WARNING: integrated charge=    28.00043991, expected=    28.00000000

     total energy              =    -449.11496908 Ry
     estimated scf accuracy    <       4.70152113 Ry

     iteration #  5     ecut=   140.00 Ry     beta= 0.70
     Davidson diagonalization with overlap
     ethr =  1.00E-02,  avg # of iterations =  1.0

     negative rho (up, down):  3.465E-04 0.000E+00

     total cpu time spent up to now is        4.4 secs

     WARNING: integrated charge=    28.00040901, expected=    28.00000000

     total energy              =    -449.10798281 Ry
     estimated scf accuracy    <       4.29808030 Ry

     iteration #  6     ecut=   140.00 Ry     beta= 0.70
     Davidson diagonalization with overlap
     ethr =  1.00E-02,  avg # of iterations =  1.1

     negative rho (up, down):  1.123E-03 0.000E+00

     total cpu time spent up to now is        4.9 secs

     WARNING: integrated charge=    28.00019934, expected=    28.00000000

     total energy              =    -447.88454254 Ry
     estimated scf accuracy    <       4.56577401 Ry

     iteration #  7     ecut=   140.00 Ry     beta= 0.70
     Davidson diagonalization with overlap
     ethr =  1.00E-02,  avg # of iterations =  3.4

     negative rho (up, down):  1.030E-03 0.000E+00

     total cpu time spent up to now is        5.5 secs

     WARNING: integrated charge=    28.00018334, expected=    28.00000000

     total energy              =    -448.61812338 Ry
     estimated scf accuracy    <       4.20103263 Ry

     iteration #  8     ecut=   140.00 Ry     beta= 0.70
     Davidson diagonalization with overlap
     ethr =  1.00E-02,  avg # of iterations =  1.0
     Minimization algorithm failed to find Fermi energy: reverting to bisection
     Possible cause: smearing is larger than the electronic band-gap.

     negative rho (up, down):  7.828E-04 0.000E+00

     total cpu time spent up to now is        6.0 secs

     WARNING: integrated charge=    28.00013319, expected=    28.00000000

     total energy              =    -448.37998341 Ry
     estimated scf accuracy    <       1.72075963 Ry

     iteration #  9     ecut=   140.00 Ry     beta= 0.70
     Davidson diagonalization with overlap
     ethr =  6.15E-03,  avg # of iterations =  1.9

     negative rho (up, down):  7.824E-04 0.000E+00

     total cpu time spent up to now is        6.6 secs

     WARNING: integrated charge=    28.00013207, expected=    28.00000000

     total energy              =    -448.61615895 Ry
     estimated scf accuracy    <       0.41621331 Ry

     iteration # 10     ecut=   140.00 Ry     beta= 0.70
     Davidson diagonalization with overlap
     ethr =  1.49E-03,  avg # of iterations =  1.3

     negative rho (up, down):  7.285E-04 0.000E+00

     total cpu time spent up to now is        7.1 secs

     WARNING: integrated charge=    28.00009786, expected=    28.00000000

     total energy              =    -448.66722497 Ry
     estimated scf accuracy    <       0.47126284 Ry

     iteration # 11     ecut=   140.00 Ry     beta= 0.70
     Davidson diagonalization with overlap
     ethr =  1.49E-03,  avg # of iterations =  1.5

     negative rho (up, down):  7.137E-04 0.000E+00

     total cpu time spent up to now is        7.7 secs

     WARNING: integrated charge=    28.00000989, expected=    28.00000000

     total energy              =    -448.66087241 Ry
     estimated scf accuracy    <       1.24649947 Ry

     iteration # 12     ecut=   140.00 Ry     beta= 0.70
     Davidson diagonalization with overlap
     ethr =  1.49E-03,  avg # of iterations =  1.0

     negative rho (up, down):  7.652E-04 0.000E+00

     total cpu time spent up to now is        8.2 secs

     WARNING: integrated charge=    28.00001583, expected=    28.00000000

     total energy              =    -448.62583276 Ry
     estimated scf accuracy    <       0.89078495 Ry

     iteration # 13     ecut=   140.00 Ry     beta= 0.70
     Davidson diagonalization with overlap
     ethr =  1.49E-03,  avg # of iterations =  1.0

     negative rho (up, down):  7.743E-04 0.000E+00

     total cpu time spent up to now is        8.7 secs

     total energy              =    -448.64130861 Ry
     estimated scf accuracy    <       0.45528690 Ry

     iteration # 14     ecut=   140.00 Ry     beta= 0.70
     Davidson diagonalization with overlap
     ethr =  1.49E-03,  avg # of iterations =  1.0

     negative rho (up, down):  7.826E-04 0.000E+00

     total cpu time spent up to now is        9.2 secs

     WARNING: integrated charge=    27.99999491, expected=    28.00000000

     total energy              =    -448.63276080 Ry
     estimated scf accuracy    <       0.51264133 Ry

     iteration # 15     ecut=   140.00 Ry     beta= 0.70
     Davidson diagonalization with overlap
     ethr =  1.49E-03,  avg # of iterations =  1.0

     negative rho (up, down):  8.092E-04 0.000E+00

     total cpu time spent up to now is        9.8 secs

     WARNING: integrated charge=    27.99999264, expected=    28.00000000

     total energy              =    -448.63086261 Ry
     estimated scf accuracy    <       0.42375549 Ry

     iteration # 16     ecut=   140.00 Ry     beta= 0.70
     Davidson diagonalization with overlap
     ethr =  1.49E-03,  avg # of iterations =  1.0

     negative rho (up, down):  8.218E-04 0.000E+00

     total cpu time spent up to now is       10.3 secs

     WARNING: integrated charge=    27.99998790, expected=    28.00000000

     total energy              =    -448.62338089 Ry
     estimated scf accuracy    <       0.42319845 Ry

     iteration # 17     ecut=   140.00 Ry     beta= 0.70
     Davidson diagonalization with overlap
     ethr =  1.49E-03,  avg # of iterations =  1.3

     negative rho (up, down):  9.806E-04 0.000E+00

     total cpu time spent up to now is       10.8 secs

     WARNING: integrated charge=    28.00002017, expected=    28.00000000

     total energy              =    -448.57849038 Ry
     estimated scf accuracy    <       0.34635585 Ry

     iteration # 18     ecut=   140.00 Ry     beta= 0.70
     Davidson diagonalization with overlap
     ethr =  1.24E-03,  avg # of iterations =  1.3

     negative rho (up, down):  9.913E-04 0.000E+00

     total cpu time spent up to now is       11.4 secs

     WARNING: integrated charge=    28.00007064, expected=    28.00000000

     total energy              =    -448.58526552 Ry
     estimated scf accuracy    <       0.06427391 Ry

     iteration # 19     ecut=   140.00 Ry     beta= 0.70
     Davidson diagonalization with overlap
     ethr =  2.30E-04,  avg # of iterations =  1.9

     negative rho (up, down):  1.017E-03 0.000E+00

     total cpu time spent up to now is       11.9 secs

     WARNING: integrated charge=    27.99999576, expected=    28.00000000

     total energy              =    -448.58573809 Ry
     estimated scf accuracy    <       0.03537340 Ry

     iteration # 20     ecut=   140.00 Ry     beta= 0.70
     Davidson diagonalization with overlap
     ethr =  1.26E-04,  avg # of iterations =  2.2

     negative rho (up, down):  9.933E-04 0.000E+00

     total cpu time spent up to now is       12.5 secs

     WARNING: integrated charge=    27.99998763, expected=    28.00000000

     total energy              =    -448.58716062 Ry
     estimated scf accuracy    <       0.01654308 Ry

     iteration # 21     ecut=   140.00 Ry     beta= 0.70
     Davidson diagonalization with overlap
     ethr =  5.91E-05,  avg # of iterations =  1.2

     negative rho (up, down):  1.001E-03 0.000E+00

     total cpu time spent up to now is       13.0 secs

     WARNING: integrated charge=    27.99999610, expected=    28.00000000

     total energy              =    -448.58528750 Ry
     estimated scf accuracy    <       0.01577283 Ry

     iteration # 22     ecut=   140.00 Ry     beta= 0.70
     Davidson diagonalization with overlap
     ethr =  5.63E-05,  avg # of iterations =  1.9

     negative rho (up, down):  9.645E-04 0.000E+00

     total cpu time spent up to now is       13.6 secs

     total energy              =    -448.58624406 Ry
     estimated scf accuracy    <       0.00110539 Ry

     iteration # 23     ecut=   140.00 Ry     beta= 0.70
     Davidson diagonalization with overlap
     ethr =  3.95E-06,  avg # of iterations =  3.2

     negative rho (up, down):  9.773E-04 0.000E+00

     total cpu time spent up to now is       14.2 secs

     total energy              =    -448.58654237 Ry
     estimated scf accuracy    <       0.00063901 Ry

     iteration # 24     ecut=   140.00 Ry     beta= 0.70
     Davidson diagonalization with overlap
     ethr =  2.28E-06,  avg # of iterations =  1.8

     negative rho (up, down):  9.455E-04 0.000E+00

     total cpu time spent up to now is       14.8 secs

     WARNING: integrated charge=    27.99999262, expected=    28.00000000

     total energy              =    -448.58664441 Ry
     estimated scf accuracy    <       0.00006717 Ry

     iteration # 25     ecut=   140.00 Ry     beta= 0.70
     Davidson diagonalization with overlap
     ethr =  2.40E-07,  avg # of iterations =  5.4

     negative rho (up, down):  9.560E-04 0.000E+00

     total cpu time spent up to now is       15.5 secs

     WARNING: integrated charge=    27.99999045, expected=    28.00000000

     total energy              =    -448.58660912 Ry
     estimated scf accuracy    <       0.00294136 Ry

     iteration # 26     ecut=   140.00 Ry     beta= 0.70
     Davidson diagonalization with overlap
     ethr =  2.40E-07,  avg # of iterations =  4.0

     negative rho (up, down):  9.630E-04 0.000E+00

     total cpu time spent up to now is       16.2 secs

     total energy              =    -448.58652411 Ry
     estimated scf accuracy    <       0.00099554 Ry

     iteration # 27     ecut=   140.00 Ry     beta= 0.70
     Davidson diagonalization with overlap
     ethr =  2.40E-07,  avg # of iterations =  4.3

     negative rho (up, down):  9.657E-04 0.000E+00

     total cpu time spent up to now is       16.9 secs

     total energy              =    -448.58657990 Ry
     estimated scf accuracy    <       0.00001342 Ry

     iteration # 28     ecut=   140.00 Ry     beta= 0.70
     Davidson diagonalization with overlap
     ethr =  4.79E-08,  avg # of iterations =  3.6

     negative rho (up, down):  9.652E-04 0.000E+00

     total cpu time spent up to now is       17.5 secs

     total energy              =    -448.58658373 Ry
     estimated scf accuracy    <       0.00000200 Ry

     iteration # 29     ecut=   140.00 Ry     beta= 0.70
     Davidson diagonalization with overlap
     ethr =  7.15E-09,  avg # of iterations =  3.0

     negative rho (up, down):  9.651E-04 0.000E+00

     total cpu time spent up to now is       18.1 secs

     total energy              =    -448.58658414 Ry
     estimated scf accuracy    <       0.00000012 Ry

     iteration # 30     ecut=   140.00 Ry     beta= 0.70
     Davidson diagonalization with overlap
     ethr =  4.19E-10,  avg # of iterations =  4.1

     negative rho (up, down):  9.650E-04 0.000E+00

     total cpu time spent up to now is       18.8 secs

     End of self-consistent calculation

          k = 0.0000 0.0000 0.0000 (  4801 PWs)   bands (ev):

   -69.2043 -39.1410 -35.2662 -35.2662 -35.2662 -15.2358 -15.2358 -15.2358
    10.1529  13.8667  13.8667  16.6614  16.6614  16.6614  19.0043  19.0043
    20.9448  20.9448

          k = 0.0000 0.0000 0.1111 (  4821 PWs)   bands (ev):

   -69.2039 -39.1379 -35.2699 -35.2656 -35.2656 -15.2790 -15.2333 -15.2333
    10.4101  13.9907  13.9986  16.6429  16.6429  16.7175  18.8472  19.0620
    20.5823  20.5823

          k = 0.0000 0.0000 0.2222 (  4801 PWs)   bands (ev):

   -69.2029 -39.1299 -35.2792 -35.2641 -35.2641 -15.3870 -15.2267 -15.2267
    11.1437  14.3127  14.3486  16.6063  16.6063  16.8689  18.4022  19.1656
    19.8172  19.8172

          k = 0.0000 0.0000 0.3333 (  4789 PWs)   bands (ev):

   -69.2017 -39.1209 -35.2897 -35.2625 -35.2625 -15.5080 -15.2193 -15.2193
    12.2344  14.5611  14.8884  16.5884  16.5884  17.0614  17.7585  19.0699
    19.0898  19.0898

          k = 0.0000 0.0000 0.4444 (  4805 PWs)   bands (ev):

   -69.2009 -39.1150 -35.2965 -35.2614 -35.2614 -15.5860 -15.2144 -15.2144
    13.4362  14.3573  15.4423  16.5970  16.5970  17.1340  17.2028  18.6543
    18.6543  18.6886

          k = 0.0000 0.1111 0.1111 (  4805 PWs)   bands (ev):

   -69.2035 -39.1344 -35.2712 -35.2678 -35.2650 -15.2802 -15.2714 -15.2305
    10.6595  14.1026  14.1344  16.5211  16.6075  16.8504  18.8363  19.0203
    20.2144  20.2227

          k = 0.0000 0.1111 0.2222 (  4791 PWs)   bands (ev):

   -69.2024 -39.1258 -35.2800 -35.2680 -35.2636 -15.3828 -15.2673 -15.2235
    11.3672  14.3907  14.4886  16.4126  16.5285  16.9760  18.5220  19.1065
    19.5187  19.6217

          k = 0.0000 0.1111 0.3333 (  4791 PWs)   bands (ev):

   -69.2013 -39.1160 -35.2908 -35.2674 -35.2620 -15.5018 -15.2584 -15.2156
    12.4071  14.6302  14.9693  16.3812  16.4516  16.9783  18.0217  18.7288
    19.1995  19.2929

          k = 0.0000 0.1111 0.4444 (  4805 PWs)   bands (ev):

   -69.2005 -39.1096 -35.2979 -35.2670 -35.2610 -15.5786 -15.2525 -15.2104
    13.5282  14.4159  15.4510  16.3727  16.4279  16.8599  17.6150  18.3320
    19.0622  19.1220

          k = 0.0000 0.2222 0.2222 (  4791 PWs)   bands (ev):

   -69.2014 -39.1154 -35.2841 -35.2760 -35.2623 -15.3808 -15.3603 -15.2155
    11.9851  14.5177  14.9057  16.1678  16.3906  16.9253  18.6819  18.9277
    19.0774  19.4445

          k = 0.0000 0.2222 0.3333 (  4797 PWs)   bands (ev):

   -69.2003 -39.1035 -35.2939 -35.2798 -35.2607 -15.4863 -15.3564 -15.2063
    12.8342  14.5595  15.4147  16.0314  16.3565  16.6321  18.4521  18.5678
    19.2724  19.5511

          k = 0.0000 0.2222 0.4444 (  4798 PWs)   bands (ev):

   -69.1995 -39.0957 -35.3014 -35.2811 -35.2597 -15.5600 -15.3482 -15.2002
    13.6333  14.3472  15.7686  16.0519  16.3089  16.5253  18.1619  18.3864
    19.4418  19.7733

          k = 0.0000 0.3333 0.3333 (  4773 PWs)   bands (ev):

   -69.1991 -39.0892 -35.2987 -35.2924 -35.2593 -15.4753 -15.4596 -15.1956
    13.2771  14.3423  15.7742  16.0817  16.1899  16.5974  18.4983  18.9569
    19.1302  20.0104

          k = 0.0000 0.3333 0.4444 (  4797 PWs)   bands (ev):

   -69.1984 -39.0799 -35.3054 -35.2971 -35.2584 -15.5388 -15.4554 -15.1887
    13.5431  14.1320  15.7014  15.8511  16.5379  17.2527  18.2577  19.0234
    19.3897  20.4024

          k = 0.0000 0.4444 0.4444 (  4768 PWs)   bands (ev):

   -69.1976 -39.0695 -35.3083 -35.3073 -35.2575 -15.5260 -15.5235 -15.1811
    13.4110  13.9878  15.5239  15.5745  17.4119  17.8949  18.6532  18.8989
    19.3999  20.7931

          k = 0.1111 0.1111 0.1111 (  4800 PWs)   bands (ev):

   -69.2031 -39.1308 -35.2706 -35.2706 -35.2662 -15.2801 -15.2687 -15.2687
    10.9028  14.2397  14.2397  16.4824  16.4824  16.9328  18.9190  18.9190
    19.6870  20.5508

          k = 0.1111 0.1111 0.2222 (  4798 PWs)   bands (ev):

   -69.2020 -39.1216 -35.2804 -35.2691 -35.2666 -15.3784 -15.2659 -15.2620
    11.5900  14.5390  14.5600  16.3345  16.3837  16.9339  18.6335  19.0553
    19.2931  19.7868

          k = 0.1111 0.1111 0.3333 (  4800 PWs)   bands (ev):

   -69.2009 -39.1111 -35.2916 -35.2674 -35.2667 -15.4960 -15.2551 -15.2543
    12.5887  14.7776  14.9748  16.2511  16.3094  16.7822  18.2362  18.8266
    19.0881  19.4695

          k = 0.1111 0.1111 0.4444 (  4800 PWs)   bands (ev):

   -69.2001 -39.1042 -35.2990 -35.2667 -35.2663 -15.5718 -15.2493 -15.2480
    13.6445  14.5217  15.4011  16.0882  16.4641  16.6556  17.9097  18.4425
    18.6925  19.7756

          k = 0.1111 0.2222 0.2222 (  4790 PWs)   bands (ev):

   -69.2010 -39.1109 -35.2834 -35.2768 -35.2668 -15.3753 -15.3575 -15.2552
    12.2043  14.6852  14.9560  16.1096  16.2316  16.6656  18.7807  19.0553
    19.1788  19.5653

          k = 0.1111 0.2222 0.3333 (  4796 PWs)   bands (ev):

   -69.1999 -39.0987 -35.2939 -35.2797 -35.2659 -15.4812 -15.3527 -15.2453
    13.0401  14.7475  15.3796  15.9599  16.1841  16.3783  18.6602  18.7090
    19.1637  19.8255

          k = 0.1111 0.2222 0.4444 (  4800 PWs)   bands (ev):

   -69.1991 -39.0907 -35.3018 -35.2806 -35.2652 -15.5545 -15.3446 -15.2388
    13.8089  14.5240  15.5936  15.8927  16.2206  16.4967  18.2709  18.5491
    18.9338  20.4571

          k = 0.1111 0.3333 0.3333 (  4787 PWs)   bands (ev):

   -69.1987 -39.0845 -35.2980 -35.2925 -35.2647 -15.4703 -15.4568 -15.2346
    13.4982  14.5252  15.7243  16.0001  16.0454  16.3674  18.5345  19.0226
    19.1243  20.3727

          k = 0.1111 0.3333 0.4444 (  4784 PWs)   bands (ev):

   -69.1980 -39.0753 -35.3051 -35.2965 -35.2638 -15.5348 -15.4522 -15.2276
    13.7459  14.3194  15.6445  15.7439  16.4458  17.0248  18.2489  18.9231
    19.2083  20.7255

          k = 0.1111 0.4444 0.4444 (  4772 PWs)   bands (ev):

   -69.1972 -39.0651 -35.3075 -35.3067 -35.2628 -15.5228 -15.5207 -15.2202
    13.6145  14.1771  15.4904  15.5314  17.3096  17.6412  18.3851  18.4776
    19.5188  20.9963

          k = 0.2222 0.2222 0.2222 (  4800 PWs)   bands (ev):

   -69.2000 -39.0995 -35.2818 -35.2818 -35.2754 -15.3661 -15.3504 -15.3504
    12.8008  15.0890  15.0890  15.9656  15.9656  16.1366  18.9756  18.9756
    19.7331  19.8014

          k = 0.2222 0.2222 0.3333 (  4793 PWs)   bands (ev):

   -69.1989 -39.0865 -35.2942 -35.2799 -35.2784 -15.4684 -15.3443 -15.3424
    13.5720  15.2105  15.2561  15.8006  15.8790  15.9763  18.8093  18.8382
    19.2742  20.2070

          k = 0.2222 0.2222 0.4444 (  4788 PWs)   bands (ev):

   -69.1981 -39.0780 -35.3030 -35.2796 -35.2787 -15.5405 -15.3372 -15.3340
    14.1884  14.8272  15.3911  15.6743  16.0216  16.3835  18.3150  18.6272
    19.0634  20.5592

          k = 0.2222 0.3333 0.3333 (  4791 PWs)   bands (ev):

   -69.1977 -39.0727 -35.2962 -35.2929 -35.2782 -15.4576 -15.4496 -15.3325
    14.1080  14.9632  15.6085  15.6568  15.8759  15.9300  18.5786  18.7296
    19.5872  20.3139

          k = 0.2222 0.3333 0.4444 (  4790 PWs)   bands (ev):

   -69.1970 -39.0636 -35.3044 -35.2950 -35.2775 -15.5246 -15.4441 -15.3253
    14.2950  14.7585  15.5184  15.5650  16.1326  16.5573  18.2056  18.5102
    19.6336  20.6965

          k = 0.2222 0.4444 0.4444 (  4769 PWs)   bands (ev):

   -69.1962 -39.0541 -35.3056 -35.3051 -35.2765 -15.5148 -15.5136 -15.3185
    14.1814  14.6482  15.4205  15.4502  16.8819  16.9025  18.0403  18.2419
    19.9144  21.0509

          k = 0.3333 0.3333 0.3333 (  4797 PWs)   bands (ev):

   -69.1966 -39.0591 -35.2941 -35.2941 -35.2928 -15.4439 -15.4414 -15.4414
    14.8408  15.1324  15.5030  15.5030  15.7487  15.7487  18.4422  18.4422
    20.2352  20.2352

          k = 0.3333 0.3333 0.4444 (  4783 PWs)   bands (ev):

   -69.1958 -39.0502 -35.3037 -35.2935 -35.2928 -15.5131 -15.4361 -15.4336
    14.8622  15.0702  15.4788  15.5725  15.7993  16.2220  18.0780  18.2966
    20.2286  20.7865

          k = 0.3333 0.4444 0.4444 (  4769 PWs)   bands (ev):

   -69.1951 -39.0415 -35.3034 -35.3033 -35.2919 -15.5057 -15.5054 -15.4288
    14.9322  15.1370  15.3876  15.4789  16.1952  16.2707  17.9124  18.1056
    20.5426  21.0942

          k = 0.4444 0.4444 0.4444 (  4758 PWs)   bands (ev):

   -69.1944 -39.0333 -35.3021 -35.3020 -35.3020 -15.5001 -15.5001 -15.4995
    15.2786  15.4656  15.4656  15.7969  15.7969  15.8048  17.8841  17.8841
    21.1205  21.1205

     the Fermi energy is    17.6491 ev

!    total energy              =    -448.58658419 Ry
     estimated scf accuracy    <          9.1E-09 Ry
     smearing contrib. (-TS)   =      -0.00008109 Ry
     internal energy E=F+TS    =    -448.58650311 Ry

     The total energy is F=E-TS. E is the sum of the following terms:
     one-electron contribution =    -151.35296539 Ry
     hartree contribution      =      91.63015606 Ry
     xc contribution           =     -52.88924776 Ry
     ewald contribution        =    -259.82070277 Ry
     one-center paw contrib.   =     -76.15374325 Ry

     convergence has been achieved in  30 iterations

     negative rho (up, down):  9.650E-04 0.000E+00

     Forces acting on atoms (cartesian axes, Ry/au):

     atom    1 type  1   force =     0.00000000    0.00000000    0.00000000
     atom    2 type  2   force =     0.00000000    0.00000000    0.00000000

     Total force =     0.000000     Total SCF correction =     0.000000


     Computing stress (Cartesian axis) and pressure


     negative rho (up, down):  9.650E-04 0.000E+00
          total   stress  (Ry/bohr**3)                   (kbar)     P=       32.20
   0.00021889   0.00000000   0.00000000           32.20        0.00        0.00
   0.00000000   0.00021889   0.00000000            0.00       32.20        0.00
   0.00000000   0.00000000   0.00021889            0.00        0.00       32.20


     Writing all to output data dir ./TiFe.save/ :
     XML data file, charge density, pseudopotentials, collected wavefunctions

     init_run     :      0.71s CPU      0.75s WALL (       1 calls)
     electrons    :     16.98s CPU     17.97s WALL (       1 calls)
     forces       :      0.12s CPU      0.13s WALL (       1 calls)
     stress       :      0.65s CPU      0.68s WALL (       1 calls)

     Called by init_run:
     wfcinit      :      0.18s CPU      0.18s WALL (       1 calls)
     potinit      :      0.16s CPU      0.17s WALL (       1 calls)
     hinit0       :      0.19s CPU      0.21s WALL (       1 calls)

     Called by electrons:
     c_bands      :      9.76s CPU     10.00s WALL (      30 calls)
     sum_band     :      3.91s CPU      4.19s WALL (      30 calls)
     v_of_rho     :      0.36s CPU      0.41s WALL (      31 calls)
     newd         :      1.83s CPU      2.05s WALL (      31 calls)
     PAW_pot      :      1.12s CPU      1.22s WALL (      31 calls)
     mix_rho      :      0.05s CPU      0.06s WALL (      30 calls)

     Called by c_bands:
     init_us_2    :      0.18s CPU      0.18s WALL (    2205 calls)
     cegterg      :      9.40s CPU      9.63s WALL (    1050 calls)

     Called by *egterg:
     cdiaghg      :      1.01s CPU      1.03s WALL (    3460 calls)
     h_psi        :      7.60s CPU      7.79s WALL (    3495 calls)
     s_psi        :      0.12s CPU      0.13s WALL (    3495 calls)
     g_psi        :      0.03s CPU      0.03s WALL (    2410 calls)

     Called by h_psi:
     h_psi:calbec :      0.28s CPU      0.29s WALL (    3495 calls)
     vloc_psi     :      7.17s CPU      7.35s WALL (    3495 calls)
     add_vuspsi   :      0.13s CPU      0.13s WALL (    3495 calls)

     General routines
     calbec       :      0.42s CPU      0.43s WALL (    5140 calls)
     fft          :      0.38s CPU      0.44s WALL (     426 calls)
     ffts         :      0.11s CPU      0.11s WALL (      61 calls)
     fftw         :      7.54s CPU      7.72s WALL (  110072 calls)
     interpolate  :      0.13s CPU      0.13s WALL (      31 calls)

     Parallel routines

     PWSCF        :     18.75s CPU     21.27s WALL


   This run was terminated on:  10:53:30  28Oct2025            

=------------------------------------------------------------------------------=
   JOB DONE.
=------------------------------------------------------------------------------=
Note: The following floating-point exceptions are signalling: IEEE_UNDERFLOW_FLAG IEEE_DENORMAL
Note: The following floating-point exceptions are signalling: IEEE_UNDERFLOW_FLAG IEEE_DENORMAL
Note: The following floating-point exceptions are signalling: IEEE_UNDERFLOW_FLAG IEEE_DENORMAL
Note: The following floating-point exceptions are signalling: IEEE_UNDERFLOW_FLAG IEEE_DENORMAL
Note: The following floating-point exceptions are signalling: IEEE_UNDERFLOW_FLAG IEEE_DENORMAL
Note: The following floating-point exceptions are signalling: IEEE_UNDERFLOW_FLAG IEEE_DENORMAL
Note: The following floating-point exceptions are signalling: IEEE_UNDERFLOW_FLAG IEEE_DENORMAL
Note: The following floating-point exceptions are signalling: IEEE_UNDERFLOW_FLAG IEEE_DENORMAL
Note: The following floating-point exceptions are signalling: IEEE_UNDERFLOW_FLAG IEEE_DENORMAL
Note: The following floating-point exceptions are signalling: IEEE_UNDERFLOW_FLAG IEEE_DENORMAL
Note: The following floating-point exceptions are signalling: IEEE_UNDERFLOW_FLAG IEEE_DENORMAL
Note: The following floating-point exceptions are signalling: IEEE_UNDERFLOW_FLAG IEEE_DENORMAL
Note: The following floating-point exceptions are signalling: IEEE_UNDERFLOW_FLAG IEEE_DENORMAL
Note: The following floating-point exceptions are signalling: IEEE_UNDERFLOW_FLAG IEEE_DENORMAL
Note: The following floating-point exceptions are signalling: IEEE_UNDERFLOW_FLAG IEEE_DENORMAL
Note: The following floating-point exceptions are signalling: IEEE_UNDERFLOW_FLAG IEEE_DENORMAL
