
     Program PWSCF v.7.4 starts on 28Oct2025 at 10:53:56 

     This program is part of the open-source Quantum ESPRESSO suite
     for quantum simulation of materials; please cite
         "P. Giannozzi et al., J. Phys.:Condens. Matter 21 395502 (2009);
         "P. Giannozzi et al., J. Phys.:Condens. Matter 29 465901 (2017);
         "P. Giannozzi et al., J. Chem. Phys. 152 154105 (2020);
          URL http://www.quantum-espresso.org", 
     in publications or presentations arising from this work. More details at
     http://www.quantum-espresso.org/quote

     Parallel version (MPI & OpenMP), running on      16 processor cores
     Number of MPI processes:                16
     Threads/MPI process:                     1

     MPI processes distributed on     1 nodes
     230349 MiB available memory on the printing compute node when the environment starts

     Reading input from TiFe_ecutrho_convergence/TiFe2_factor20.in

     Current dimensions of program PWSCF are:
     Max number of different atomic species (ntypx) = 10
     Max number of k-points (npk) =  40000
     Max angular momentum in pseudopotentials (lmaxx) =  4
     file Fe.pbe-spn-kjpaw_psl.0.2.1.UPF: wavefunction(s)  3D renormalized

     IMPORTANT: XC functional enforced from input :
     Exchange-correlation= PBE
                           (   1   4   3   4   0   0   0)
     Any further DFT definition will be discarded
     Please, verify this is what you really want

     Message from routine setup:
     using ibrav=0 with symmetry is DISCOURAGED, use correct ibrav instead

     R & G space division:  proc/nbgrp/npool/nimage =      16
     Subspace diagonalization in iterative solution of the eigenvalue problem:
     a serial algorithm will be used


     Parallelization info
     --------------------
     sticks:   dense  smooth     PW     G-vecs:    dense   smooth      PW
     Min         429      85     25                26787     2399     375
     Max         430      86     26                26790     2402     378
     Sum        6869    1369    401               428617    38401    6031

     Using Slab Decomposition



     bravais-lattice index     =            0
     lattice parameter (alat)  =       5.5533  a.u.
     unit-cell volume          =     171.2590 (a.u.)^3
     number of atoms/cell      =            2
     number of atomic types    =            2
     number of electrons       =        28.00
     number of Kohn-Sham states=           18
     kinetic-energy cutoff     =     140.0000  Ry
     charge density cutoff     =    2800.0000  Ry
     scf convergence threshold =      1.0E-08
     mixing beta               =       0.7000
     number of iterations used =            8  plain     mixing
     Exchange-correlation= PBE
                           (   1   4   3   4   0   0   0)

     celldm(1)=   5.553300  celldm(2)=   0.000000  celldm(3)=   0.000000
     celldm(4)=   0.000000  celldm(5)=   0.000000  celldm(6)=   0.000000

     crystal axes: (cart. coord. in units of alat)
               a(1) = (   1.000000   0.000000   0.000000 )  
               a(2) = (   0.000000   1.000000   0.000000 )  
               a(3) = (   0.000000   0.000000   1.000000 )  

     reciprocal axes: (cart. coord. in units 2 pi/alat)
               b(1) = (  1.000000  0.000000  0.000000 )  
               b(2) = (  0.000000  1.000000  0.000000 )  
               b(3) = (  0.000000  0.000000  1.000000 )  


     PseudoPot. # 1 for Fe read from file:
     ./Fe.pbe-spn-kjpaw_psl.0.2.1.UPF
     MD5 check sum: e86618425769142926afa95317d90200
     Pseudo is Projector augmented-wave + core cor, Zval = 16.0
     Generated using "atomic" code by A. Dal Corso  v.5.0.99 svn rev. 10869
     Shape of augmentation charge: PSQ
     Using radial grid of 1191 points,  6 beta functions with: 
                l(1) =   0
                l(2) =   0
                l(3) =   1
                l(4) =   1
                l(5) =   2
                l(6) =   2
     Q(r) pseudized with 0 coefficients 


     PseudoPot. # 2 for Ti read from file:
     ./Ti_pbe_v1.4.uspp.F.UPF
     MD5 check sum: 88a00a6731bd790ddea75d31a80cb452
     Pseudo is Ultrasoft + core correction, Zval = 12.0
     Generated by new atomic code, or converted to UPF format
     Using radial grid of  851 points,  6 beta functions with: 
                l(1) =   0
                l(2) =   0
                l(3) =   1
                l(4) =   1
                l(5) =   2
                l(6) =   2
     Q(r) pseudized with  6 coefficients,  rinner =    1.000   1.000   1.000
                                                       1.000   1.000

     atomic species   valence    mass     pseudopotential
     Fe               16.00    55.84500     Fe( 1.00)
     Ti               12.00    47.86700     Ti( 1.00)

     48 Sym. Ops., with inversion, found



   Cartesian axes

     site n.     atom                  positions (alat units)
         1        Fe     tau(   1) = (   0.5000000   0.5000000   0.5000000  )
         2        Ti     tau(   2) = (   0.0000000   0.0000000   0.0000000  )

     number of k points=    35  Marzari-Vanderbilt smearing, width (Ry)=  0.0050
                       cart. coord. in units 2pi/alat
        k(    1) = (   0.0000000   0.0000000   0.0000000), wk =   0.0027435
        k(    2) = (   0.0000000   0.0000000   0.1111111), wk =   0.0164609
        k(    3) = (   0.0000000   0.0000000   0.2222222), wk =   0.0164609
        k(    4) = (   0.0000000   0.0000000   0.3333333), wk =   0.0164609
        k(    5) = (   0.0000000   0.0000000   0.4444444), wk =   0.0164609
        k(    6) = (   0.0000000   0.1111111   0.1111111), wk =   0.0329218
        k(    7) = (   0.0000000   0.1111111   0.2222222), wk =   0.0658436
        k(    8) = (   0.0000000   0.1111111   0.3333333), wk =   0.0658436
        k(    9) = (   0.0000000   0.1111111   0.4444444), wk =   0.0658436
        k(   10) = (   0.0000000   0.2222222   0.2222222), wk =   0.0329218
        k(   11) = (   0.0000000   0.2222222   0.3333333), wk =   0.0658436
        k(   12) = (   0.0000000   0.2222222   0.4444444), wk =   0.0658436
        k(   13) = (   0.0000000   0.3333333   0.3333333), wk =   0.0329218
        k(   14) = (   0.0000000   0.3333333   0.4444444), wk =   0.0658436
        k(   15) = (   0.0000000   0.4444444   0.4444444), wk =   0.0329218
        k(   16) = (   0.1111111   0.1111111   0.1111111), wk =   0.0219479
        k(   17) = (   0.1111111   0.1111111   0.2222222), wk =   0.0658436
        k(   18) = (   0.1111111   0.1111111   0.3333333), wk =   0.0658436
        k(   19) = (   0.1111111   0.1111111   0.4444444), wk =   0.0658436
        k(   20) = (   0.1111111   0.2222222   0.2222222), wk =   0.0658436
        k(   21) = (   0.1111111   0.2222222   0.3333333), wk =   0.1316872
        k(   22) = (   0.1111111   0.2222222   0.4444444), wk =   0.1316872
        k(   23) = (   0.1111111   0.3333333   0.3333333), wk =   0.0658436
        k(   24) = (   0.1111111   0.3333333   0.4444444), wk =   0.1316872
        k(   25) = (   0.1111111   0.4444444   0.4444444), wk =   0.0658436
        k(   26) = (   0.2222222   0.2222222   0.2222222), wk =   0.0219479
        k(   27) = (   0.2222222   0.2222222   0.3333333), wk =   0.0658436
        k(   28) = (   0.2222222   0.2222222   0.4444444), wk =   0.0658436
        k(   29) = (   0.2222222   0.3333333   0.3333333), wk =   0.0658436
        k(   30) = (   0.2222222   0.3333333   0.4444444), wk =   0.1316872
        k(   31) = (   0.2222222   0.4444444   0.4444444), wk =   0.0658436
        k(   32) = (   0.3333333   0.3333333   0.3333333), wk =   0.0219479
        k(   33) = (   0.3333333   0.3333333   0.4444444), wk =   0.0658436
        k(   34) = (   0.3333333   0.4444444   0.4444444), wk =   0.0658436
        k(   35) = (   0.4444444   0.4444444   0.4444444), wk =   0.0219479

     Dense  grid:   428617 G-vectors     FFT dimensions: (  96,  96,  96)

     Smooth grid:    38401 G-vectors     FFT dimensions: (  45,  45,  45)

     Estimated max dynamical RAM per process >     109.33 MB

     Estimated total dynamical RAM >       1.71 GB

     Initial potential from superposition of free atoms

     starting charge      26.9995, renormalised to      28.0000

     negative rho (up, down):  1.422E-03 0.000E+00
     Starting wfcs are   23 randomized atomic wfcs
     Checking if some PAW data can be deallocated... 

     total cpu time spent up to now is        1.6 secs

     per-process dynamical memory:   137.9 Mb

     Self-consistent Calculation

     iteration #  1     ecut=   140.00 Ry     beta= 0.70
     Davidson diagonalization with overlap
     ethr =  1.00E-02,  avg # of iterations =  2.1

     negative rho (up, down):  8.736E-05 0.000E+00

     total cpu time spent up to now is        2.4 secs

     WARNING: integrated charge=    28.00015285, expected=    28.00000000

     total energy              =    -434.65117729 Ry
     estimated scf accuracy    <      17.72176921 Ry

     iteration #  2     ecut=   140.00 Ry     beta= 0.70
     Davidson diagonalization with overlap
     ethr =  1.00E-02,  avg # of iterations =  6.1

     negative rho (up, down):  2.317E-05 0.000E+00

     total cpu time spent up to now is        3.6 secs

     WARNING: integrated charge=    28.00011666, expected=    28.00000000

     total energy              =    -448.38265253 Ry
     estimated scf accuracy    <      67.29711537 Ry

     iteration #  3     ecut=   140.00 Ry     beta= 0.70
     Davidson diagonalization with overlap
     ethr =  1.00E-02,  avg # of iterations =  3.1

     negative rho (up, down):  2.233E-04 0.000E+00

     total cpu time spent up to now is        4.5 secs

     WARNING: integrated charge=    28.00009304, expected=    28.00000000

     total energy              =    -448.63859555 Ry
     estimated scf accuracy    <      16.84709949 Ry

     iteration #  4     ecut=   140.00 Ry     beta= 0.70
     Davidson diagonalization with overlap
     ethr =  1.00E-02,  avg # of iterations =  2.1

     negative rho (up, down):  2.615E-04 0.000E+00

     total cpu time spent up to now is        5.4 secs

     WARNING: integrated charge=    28.00038890, expected=    28.00000000

     total energy              =    -449.11893051 Ry
     estimated scf accuracy    <       4.81541979 Ry

     iteration #  5     ecut=   140.00 Ry     beta= 0.70
     Davidson diagonalization with overlap
     ethr =  1.00E-02,  avg # of iterations =  1.0

     negative rho (up, down):  4.237E-04 0.000E+00

     total cpu time spent up to now is        6.1 secs

     WARNING: integrated charge=    27.99314474, expected=    28.00000000

     total energy              =    -448.95115814 Ry
     estimated scf accuracy    <       4.30429207 Ry

     iteration #  6     ecut=   140.00 Ry     beta= 0.70
     Davidson diagonalization with overlap
     ethr =  1.00E-02,  avg # of iterations =  1.0

     negative rho (up, down):  9.785E-04 0.000E+00

     total cpu time spent up to now is        6.9 secs

     WARNING: integrated charge=    27.99219324, expected=    28.00000000

     total energy              =    -448.11118285 Ry
     estimated scf accuracy    <       4.06820603 Ry

     iteration #  7     ecut=   140.00 Ry     beta= 0.70
     Davidson diagonalization with overlap
     ethr =  1.00E-02,  avg # of iterations =  2.2

     negative rho (up, down):  1.117E-03 0.000E+00

     total cpu time spent up to now is        7.6 secs

     WARNING: integrated charge=    27.99150060, expected=    28.00000000

     total energy              =    -448.67218433 Ry
     estimated scf accuracy    <       0.66632447 Ry

     iteration #  8     ecut=   140.00 Ry     beta= 0.70
     Davidson diagonalization with overlap
     ethr =  2.38E-03,  avg # of iterations =  4.0

     negative rho (up, down):  5.190E-04 0.000E+00

     total cpu time spent up to now is        8.5 secs

     WARNING: integrated charge=    27.99351702, expected=    28.00000000

     total energy              =    -447.93317955 Ry
     estimated scf accuracy    <       4.56029141 Ry

     iteration #  9     ecut=   140.00 Ry     beta= 0.70
     Davidson diagonalization with overlap
     ethr =  2.38E-03,  avg # of iterations =  4.2

     negative rho (up, down):  5.030E-04 0.000E+00

     total cpu time spent up to now is        9.4 secs

     WARNING: integrated charge=    27.99613557, expected=    28.00000000

     total energy              =    -448.71287458 Ry
     estimated scf accuracy    <       2.21969620 Ry

     iteration # 10     ecut=   140.00 Ry     beta= 0.70
     Davidson diagonalization with overlap
     ethr =  2.38E-03,  avg # of iterations =  1.0

     negative rho (up, down):  4.210E-04 0.000E+00

     total cpu time spent up to now is       10.1 secs

     WARNING: integrated charge=    28.00117203, expected=    28.00000000

     total energy              =    -448.65448755 Ry
     estimated scf accuracy    <       1.65639030 Ry

     iteration # 11     ecut=   140.00 Ry     beta= 0.70
     Davidson diagonalization with overlap
     ethr =  2.38E-03,  avg # of iterations =  1.0

     negative rho (up, down):  3.796E-04 0.000E+00

     total cpu time spent up to now is       10.9 secs

     WARNING: integrated charge=    27.99992826, expected=    28.00000000

     total energy              =    -448.74150053 Ry
     estimated scf accuracy    <       0.73312227 Ry

     iteration # 12     ecut=   140.00 Ry     beta= 0.70
     Davidson diagonalization with overlap
     ethr =  2.38E-03,  avg # of iterations =  1.0

     negative rho (up, down):  3.665E-04 0.000E+00

     total cpu time spent up to now is       11.6 secs

     WARNING: integrated charge=    28.00012178, expected=    28.00000000

     total energy              =    -448.76382553 Ry
     estimated scf accuracy    <       1.40443858 Ry

     iteration # 13     ecut=   140.00 Ry     beta= 0.70
     Davidson diagonalization with overlap
     ethr =  2.38E-03,  avg # of iterations =  1.0

     negative rho (up, down):  2.815E-04 0.000E+00

     total cpu time spent up to now is       12.4 secs

     WARNING: integrated charge=    27.99998490, expected=    28.00000000

     total energy              =    -448.85423053 Ry
     estimated scf accuracy    <       1.50158537 Ry

     iteration # 14     ecut=   140.00 Ry     beta= 0.70
     Davidson diagonalization with overlap
     ethr =  2.38E-03,  avg # of iterations =  1.0

     negative rho (up, down):  2.902E-04 0.000E+00

     total cpu time spent up to now is       13.1 secs

     WARNING: integrated charge=    28.00010826, expected=    28.00000000

     total energy              =    -448.84650997 Ry
     estimated scf accuracy    <       2.10940144 Ry

     iteration # 15     ecut=   140.00 Ry     beta= 0.70
     Davidson diagonalization with overlap
     ethr =  2.38E-03,  avg # of iterations =  1.0

     negative rho (up, down):  3.659E-04 0.000E+00

     total cpu time spent up to now is       13.9 secs

     WARNING: integrated charge=    27.99894974, expected=    28.00000000

     total energy              =    -448.76136200 Ry
     estimated scf accuracy    <       2.03605228 Ry

     iteration # 16     ecut=   140.00 Ry     beta= 0.70
     Davidson diagonalization with overlap
     ethr =  2.38E-03,  avg # of iterations =  1.0

     negative rho (up, down):  5.689E-04 0.000E+00

     total cpu time spent up to now is       14.7 secs

     WARNING: integrated charge=    27.99801550, expected=    28.00000000

     total energy              =    -448.61975367 Ry
     estimated scf accuracy    <       1.57467172 Ry

     iteration # 17     ecut=   140.00 Ry     beta= 0.70
     Davidson diagonalization with overlap
     ethr =  2.38E-03,  avg # of iterations =  1.1

     negative rho (up, down):  8.990E-04 0.000E+00

     total cpu time spent up to now is       15.4 secs

     WARNING: integrated charge=    27.99957876, expected=    28.00000000

     total energy              =    -448.56646083 Ry
     estimated scf accuracy    <       0.60086169 Ry

     iteration # 18     ecut=   140.00 Ry     beta= 0.70
     Davidson diagonalization with overlap
     ethr =  2.15E-03,  avg # of iterations =  1.2

     negative rho (up, down):  9.428E-04 0.000E+00

     total cpu time spent up to now is       16.2 secs

     WARNING: integrated charge=    28.00024890, expected=    28.00000000

     total energy              =    -448.57521005 Ry
     estimated scf accuracy    <       0.11478843 Ry

     iteration # 19     ecut=   140.00 Ry     beta= 0.70
     Davidson diagonalization with overlap
     ethr =  4.10E-04,  avg # of iterations =  3.3

     negative rho (up, down):  7.020E-04 0.000E+00

     total cpu time spent up to now is       17.0 secs

     WARNING: integrated charge=    28.00112050, expected=    28.00000000

     total energy              =    -448.58634548 Ry
     estimated scf accuracy    <       0.00122455 Ry

     iteration # 20     ecut=   140.00 Ry     beta= 0.70
     Davidson diagonalization with overlap
     ethr =  4.37E-06,  avg # of iterations =  5.8

     negative rho (up, down):  8.487E-04 0.000E+00

     total cpu time spent up to now is       18.0 secs

     WARNING: integrated charge=    28.00025110, expected=    28.00000000

     total energy              =    -448.57968325 Ry
     estimated scf accuracy    <       0.16400080 Ry

     iteration # 21     ecut=   140.00 Ry     beta= 0.70
     Davidson diagonalization with overlap
     ethr =  4.37E-06,  avg # of iterations =  5.7

     negative rho (up, down):  7.640E-04 0.000E+00

     total cpu time spent up to now is       19.1 secs

     WARNING: integrated charge=    28.00042229, expected=    28.00000000

     total energy              =    -448.58901595 Ry
     estimated scf accuracy    <       0.00356386 Ry

     iteration # 22     ecut=   140.00 Ry     beta= 0.70
     Davidson diagonalization with overlap
     ethr =  4.37E-06,  avg # of iterations =  5.0

     negative rho (up, down):  9.984E-04 0.000E+00

     total cpu time spent up to now is       20.1 secs

     WARNING: integrated charge=    27.99987188, expected=    28.00000000

     total energy              =    -448.57574741 Ry
     estimated scf accuracy    <       0.08044116 Ry

     iteration # 23     ecut=   140.00 Ry     beta= 0.70
     Davidson diagonalization with overlap
     ethr =  4.37E-06,  avg # of iterations =  5.9

     negative rho (up, down):  8.114E-04 0.000E+00

     total cpu time spent up to now is       21.2 secs

     WARNING: integrated charge=    28.00015188, expected=    28.00000000

     total energy              =    -448.57937176 Ry
     estimated scf accuracy    <       0.04162587 Ry

     iteration # 24     ecut=   140.00 Ry     beta= 0.70
     Davidson diagonalization with overlap
     ethr =  4.37E-06,  avg # of iterations =  5.7

     negative rho (up, down):  8.937E-04 0.000E+00

     total cpu time spent up to now is       22.2 secs

     WARNING: integrated charge=    28.00002931, expected=    28.00000000

     total energy              =    -448.58529806 Ry
     estimated scf accuracy    <       0.03699563 Ry

     iteration # 25     ecut=   140.00 Ry     beta= 0.70
     Davidson diagonalization with overlap
     ethr =  4.37E-06,  avg # of iterations =  4.0

     negative rho (up, down):  8.988E-04 0.000E+00

     total cpu time spent up to now is       23.2 secs

     WARNING: integrated charge=    28.00002548, expected=    28.00000000

     total energy              =    -448.58671063 Ry
     estimated scf accuracy    <       0.00188797 Ry

     iteration # 26     ecut=   140.00 Ry     beta= 0.70
     Davidson diagonalization with overlap
     ethr =  4.37E-06,  avg # of iterations =  1.0

     negative rho (up, down):  9.017E-04 0.000E+00

     total cpu time spent up to now is       23.9 secs

     WARNING: integrated charge=    28.00002244, expected=    28.00000000

     total energy              =    -448.58668818 Ry
     estimated scf accuracy    <       0.00138028 Ry

     iteration # 27     ecut=   140.00 Ry     beta= 0.70
     Davidson diagonalization with overlap
     ethr =  4.37E-06,  avg # of iterations =  1.0

     negative rho (up, down):  9.347E-04 0.000E+00

     total cpu time spent up to now is       24.7 secs

     total energy              =    -448.58646047 Ry
     estimated scf accuracy    <       0.00109396 Ry

     iteration # 28     ecut=   140.00 Ry     beta= 0.70
     Davidson diagonalization with overlap
     ethr =  3.91E-06,  avg # of iterations =  1.7

     negative rho (up, down):  9.349E-04 0.000E+00

     total cpu time spent up to now is       25.5 secs

     total energy              =    -448.58656709 Ry
     estimated scf accuracy    <       0.00000324 Ry

     iteration # 29     ecut=   140.00 Ry     beta= 0.70
     Davidson diagonalization with overlap
     ethr =  1.16E-08,  avg # of iterations =  6.1

     negative rho (up, down):  9.343E-04 0.000E+00

     total cpu time spent up to now is       26.5 secs

     total energy              =    -448.58658386 Ry
     estimated scf accuracy    <       0.00001218 Ry

     iteration # 30     ecut=   140.00 Ry     beta= 0.70
     Davidson diagonalization with overlap
     ethr =  1.16E-08,  avg # of iterations =  1.0

     negative rho (up, down):  9.335E-04 0.000E+00

     total cpu time spent up to now is       27.3 secs

     total energy              =    -448.58658306 Ry
     estimated scf accuracy    <       0.00000577 Ry

     iteration # 31     ecut=   140.00 Ry     beta= 0.70
     Davidson diagonalization with overlap
     ethr =  1.16E-08,  avg # of iterations =  2.6

     negative rho (up, down):  9.331E-04 0.000E+00

     total cpu time spent up to now is       28.1 secs

     total energy              =    -448.58658382 Ry
     estimated scf accuracy    <       0.00000056 Ry

     iteration # 32     ecut=   140.00 Ry     beta= 0.70
     Davidson diagonalization with overlap
     ethr =  2.00E-09,  avg # of iterations =  3.9

     negative rho (up, down):  9.339E-04 0.000E+00

     total cpu time spent up to now is       28.9 secs

     total energy              =    -448.58658351 Ry
     estimated scf accuracy    <       0.00000305 Ry

     iteration # 33     ecut=   140.00 Ry     beta= 0.70
     Davidson diagonalization with overlap
     ethr =  2.00E-09,  avg # of iterations =  2.2

     negative rho (up, down):  9.345E-04 0.000E+00

     total cpu time spent up to now is       29.7 secs

     total energy              =    -448.58658347 Ry
     estimated scf accuracy    <       0.00000057 Ry

     iteration # 34     ecut=   140.00 Ry     beta= 0.70
     Davidson diagonalization with overlap
     ethr =  2.00E-09,  avg # of iterations =  3.3

     negative rho (up, down):  9.345E-04 0.000E+00

     total cpu time spent up to now is       30.5 secs

     total energy              =    -448.58658357 Ry
     estimated scf accuracy    <       0.00000009 Ry

     iteration # 35     ecut=   140.00 Ry     beta= 0.70
     Davidson diagonalization with overlap
     ethr =  3.37E-10,  avg # of iterations =  1.8

     negative rho (up, down):  9.344E-04 0.000E+00

     total cpu time spent up to now is       31.3 secs

     total energy              =    -448.58658357 Ry
     estimated scf accuracy    <       0.00000001 Ry

     iteration # 36     ecut=   140.00 Ry     beta= 0.70
     Davidson diagonalization with overlap
     ethr =  5.22E-11,  avg # of iterations =  3.5

     negative rho (up, down):  9.346E-04 0.000E+00

     total cpu time spent up to now is       32.2 secs

     End of self-consistent calculation

          k = 0.0000 0.0000 0.0000 (  4801 PWs)   bands (ev):

   -69.2041 -39.1405 -35.2660 -35.2660 -35.2660 -15.2354 -15.2354 -15.2354
    10.1529  13.8668  13.8668  16.6615  16.6615  16.6615  19.0046  19.0046
    20.9451  20.9451

          k = 0.0000 0.0000 0.1111 (  4821 PWs)   bands (ev):

   -69.2037 -39.1374 -35.2697 -35.2655 -35.2655 -15.2785 -15.2328 -15.2328
    10.4101  13.9908  13.9987  16.6430  16.6430  16.7176  18.8474  19.0622
    20.5826  20.5826

          k = 0.0000 0.0000 0.2222 (  4801 PWs)   bands (ev):

   -69.2027 -39.1294 -35.2791 -35.2640 -35.2640 -15.3866 -15.2263 -15.2263
    11.1437  14.3128  14.3486  16.6064  16.6064  16.8690  18.4025  19.1658
    19.8175  19.8175

          k = 0.0000 0.0000 0.3333 (  4789 PWs)   bands (ev):

   -69.2015 -39.1204 -35.2896 -35.2624 -35.2624 -15.5076 -15.2188 -15.2188
    12.2344  14.5612  14.8885  16.5885  16.5885  17.0615  17.7587  19.0700
    19.0901  19.0901

          k = 0.0000 0.0000 0.4444 (  4805 PWs)   bands (ev):

   -69.2008 -39.1146 -35.2964 -35.2613 -35.2613 -15.5855 -15.2140 -15.2140
    13.4362  14.3573  15.4424  16.5970  16.5970  17.1343  17.2029  18.6545
    18.6545  18.6887

          k = 0.0000 0.1111 0.1111 (  4805 PWs)   bands (ev):

   -69.2033 -39.1340 -35.2711 -35.2677 -35.2649 -15.2798 -15.2709 -15.2301
    10.6595  14.1027  14.1345  16.5212  16.6076  16.8505  18.8366  19.0206
    20.2147  20.2230

          k = 0.0000 0.1111 0.2222 (  4791 PWs)   bands (ev):

   -69.2023 -39.1253 -35.2799 -35.2679 -35.2635 -15.3823 -15.2669 -15.2231
    11.3672  14.3908  14.4887  16.4127  16.5286  16.9761  18.5222  19.1067
    19.5190  19.6220

          k = 0.0000 0.1111 0.3333 (  4791 PWs)   bands (ev):

   -69.2011 -39.1155 -35.2907 -35.2673 -35.2619 -15.5014 -15.2580 -15.2152
    12.4071  14.6303  14.9694  16.3813  16.4516  16.9784  18.0220  18.7290
    19.1998  19.2932

          k = 0.0000 0.1111 0.4444 (  4805 PWs)   bands (ev):

   -69.2004 -39.1091 -35.2978 -35.2669 -35.2608 -15.5782 -15.2521 -15.2100
    13.5282  14.4159  15.4511  16.3728  16.4280  16.8600  17.6153  18.3322
    19.0624  19.1222

          k = 0.0000 0.2222 0.2222 (  4791 PWs)   bands (ev):

   -69.2013 -39.1149 -35.2839 -35.2759 -35.2621 -15.3803 -15.3598 -15.2150
    11.9851  14.5178  14.9058  16.1679  16.3906  16.9253  18.6822  18.9280
    19.0776  19.4448

          k = 0.0000 0.2222 0.3333 (  4797 PWs)   bands (ev):

   -69.2001 -39.1030 -35.2937 -35.2796 -35.2606 -15.4859 -15.3560 -15.2058
    12.8342  14.5595  15.4148  16.0315  16.3566  16.6322  18.4524  18.5680
    19.2726  19.5514

          k = 0.0000 0.2222 0.4444 (  4798 PWs)   bands (ev):

   -69.1994 -39.0952 -35.3012 -35.2810 -35.2596 -15.5595 -15.3477 -15.1998
    13.6334  14.3473  15.7686  16.0520  16.3090  16.5254  18.1621  18.3867
    19.4420  19.7735

          k = 0.0000 0.3333 0.3333 (  4773 PWs)   bands (ev):

   -69.1990 -39.0887 -35.2986 -35.2923 -35.2592 -15.4748 -15.4592 -15.1952
    13.2771  14.3424  15.7743  16.0818  16.1900  16.5974  18.4985  18.9572
    19.1304  20.0107

          k = 0.0000 0.3333 0.4444 (  4797 PWs)   bands (ev):

   -69.1982 -39.0794 -35.3053 -35.2970 -35.2582 -15.5383 -15.4550 -15.1882
    13.5431  14.1320  15.7015  15.8512  16.5379  17.2527  18.2579  19.0237
    19.3898  20.4026

          k = 0.0000 0.4444 0.4444 (  4768 PWs)   bands (ev):

   -69.1975 -39.0690 -35.3081 -35.3072 -35.2573 -15.5255 -15.5231 -15.1806
    13.4110  13.9879  15.5240  15.5746  17.4120  17.8950  18.6533  18.8990
    19.4002  20.7934

          k = 0.1111 0.1111 0.1111 (  4800 PWs)   bands (ev):

   -69.2029 -39.1303 -35.2705 -35.2705 -35.2661 -15.2797 -15.2683 -15.2683
    10.9028  14.2398  14.2398  16.4825  16.4825  16.9329  18.9193  18.9193
    19.6874  20.5511

          k = 0.1111 0.1111 0.2222 (  4798 PWs)   bands (ev):

   -69.2019 -39.1211 -35.2802 -35.2690 -35.2664 -15.3780 -15.2655 -15.2615
    11.5900  14.5391  14.5601  16.3346  16.3838  16.9340  18.6338  19.0555
    19.2934  19.7871

          k = 0.1111 0.1111 0.3333 (  4800 PWs)   bands (ev):

   -69.2007 -39.1106 -35.2915 -35.2673 -35.2665 -15.4955 -15.2547 -15.2539
    12.5887  14.7777  14.9749  16.2511  16.3095  16.7823  18.2365  18.8268
    19.0884  19.4697

          k = 0.1111 0.1111 0.4444 (  4800 PWs)   bands (ev):

   -69.2000 -39.1038 -35.2989 -35.2666 -35.2662 -15.5713 -15.2489 -15.2475
    13.6445  14.5218  15.4012  16.0883  16.4642  16.6557  17.9099  18.4426
    18.6928  19.7759

          k = 0.1111 0.2222 0.2222 (  4790 PWs)   bands (ev):

   -69.2009 -39.1104 -35.2833 -35.2767 -35.2667 -15.3749 -15.3570 -15.2548
    12.2043  14.6853  14.9561  16.1097  16.2317  16.6656  18.7809  19.0555
    19.1790  19.5656

          k = 0.1111 0.2222 0.3333 (  4796 PWs)   bands (ev):

   -69.1997 -39.0982 -35.2938 -35.2795 -35.2658 -15.4808 -15.3523 -15.2449
    13.0401  14.7476  15.3797  15.9600  16.1842  16.3783  18.6604  18.7092
    19.1639  19.8258

          k = 0.1111 0.2222 0.4444 (  4800 PWs)   bands (ev):

   -69.1990 -39.0902 -35.3017 -35.2805 -35.2651 -15.5540 -15.3442 -15.2384
    13.8090  14.5241  15.5936  15.8928  16.2207  16.4968  18.2710  18.5494
    18.9340  20.4574

          k = 0.1111 0.3333 0.3333 (  4787 PWs)   bands (ev):

   -69.1986 -39.0841 -35.2979 -35.2924 -35.2645 -15.4698 -15.4564 -15.2342
    13.4983  14.5253  15.7244  16.0002  16.0455  16.3675  18.5346  19.0228
    19.1246  20.3729

          k = 0.1111 0.3333 0.4444 (  4784 PWs)   bands (ev):

   -69.1978 -39.0748 -35.3050 -35.2964 -35.2637 -15.5343 -15.4518 -15.2271
    13.7459  14.3195  15.6446  15.7440  16.4459  17.0249  18.2490  18.9232
    19.2085  20.7258

          k = 0.1111 0.4444 0.4444 (  4772 PWs)   bands (ev):

   -69.1971 -39.0646 -35.3074 -35.3065 -35.2627 -15.5224 -15.5203 -15.2198
    13.6145  14.1772  15.4905  15.5315  17.3097  17.6413  18.3852  18.4777
    19.5191  20.9967

          k = 0.2222 0.2222 0.2222 (  4800 PWs)   bands (ev):

   -69.1999 -39.0990 -35.2817 -35.2817 -35.2753 -15.3657 -15.3500 -15.3500
    12.8008  15.0891  15.0891  15.9657  15.9657  16.1367  18.9758  18.9758
    19.7333  19.8017

          k = 0.2222 0.2222 0.3333 (  4793 PWs)   bands (ev):

   -69.1987 -39.0861 -35.2941 -35.2798 -35.2782 -15.4679 -15.3439 -15.3420
    13.5721  15.2106  15.2562  15.8007  15.8791  15.9764  18.8095  18.8384
    19.2745  20.2073

          k = 0.2222 0.2222 0.4444 (  4788 PWs)   bands (ev):

   -69.1980 -39.0776 -35.3029 -35.2795 -35.2786 -15.5401 -15.3367 -15.3336
    14.1885  14.8273  15.3912  15.6744  16.0216  16.3836  18.3151  18.6275
    19.0636  20.5595

          k = 0.2222 0.3333 0.3333 (  4791 PWs)   bands (ev):

   -69.1976 -39.0722 -35.2961 -35.2928 -35.2781 -15.4571 -15.4492 -15.3320
    14.1080  14.9633  15.6086  15.6569  15.8760  15.9301  18.5788  18.7298
    19.5874  20.3142

          k = 0.2222 0.3333 0.4444 (  4790 PWs)   bands (ev):

   -69.1968 -39.0631 -35.3043 -35.2949 -35.2774 -15.5242 -15.4437 -15.3248
    14.2951  14.7586  15.5185  15.5651  16.1327  16.5575  18.2058  18.5104
    19.6339  20.6968

          k = 0.2222 0.4444 0.4444 (  4769 PWs)   bands (ev):

   -69.1961 -39.0536 -35.3055 -35.3049 -35.2763 -15.5144 -15.5131 -15.3181
    14.1815  14.6483  15.4206  15.4503  16.8820  16.9026  18.0404  18.2421
    19.9147  21.0513

          k = 0.3333 0.3333 0.3333 (  4797 PWs)   bands (ev):

   -69.1964 -39.0586 -35.2940 -35.2940 -35.2927 -15.4435 -15.4410 -15.4410
    14.8408  15.1325  15.5031  15.5031  15.7488  15.7488  18.4424  18.4424
    20.2356  20.2356

          k = 0.3333 0.3333 0.4444 (  4783 PWs)   bands (ev):

   -69.1957 -39.0498 -35.3036 -35.2934 -35.2926 -15.5126 -15.4356 -15.4332
    14.8623  15.0703  15.4789  15.5726  15.7994  16.2221  18.0781  18.2967
    20.2289  20.7869

          k = 0.3333 0.4444 0.4444 (  4769 PWs)   bands (ev):

   -69.1950 -39.0410 -35.3033 -35.3031 -35.2918 -15.5052 -15.5050 -15.4283
    14.9323  15.1371  15.3877  15.4789  16.1953  16.2709  17.9125  18.1057
    20.5429  21.0946

          k = 0.4444 0.4444 0.4444 (  4758 PWs)   bands (ev):

   -69.1942 -39.0328 -35.3020 -35.3018 -35.3018 -15.4996 -15.4996 -15.4991
    15.2787  15.4657  15.4657  15.7970  15.7970  15.8049  17.8842  17.8842
    21.1209  21.1209

     the Fermi energy is    17.6492 ev

!    total energy              =    -448.58658356 Ry
     estimated scf accuracy    <          6.0E-09 Ry
     smearing contrib. (-TS)   =      -0.00008119 Ry
     internal energy E=F+TS    =    -448.58650237 Ry

     The total energy is F=E-TS. E is the sum of the following terms:
     one-electron contribution =    -151.35330157 Ry
     hartree contribution      =      91.63044379 Ry
     xc contribution           =     -52.88919666 Ry
     ewald contribution        =    -259.82070277 Ry
     one-center paw contrib.   =     -76.15374517 Ry

     convergence has been achieved in  36 iterations

     negative rho (up, down):  9.346E-04 0.000E+00

     Forces acting on atoms (cartesian axes, Ry/au):

     atom    1 type  1   force =     0.00000000    0.00000000    0.00000000
     atom    2 type  2   force =     0.00000000    0.00000000    0.00000000

     Total force =     0.000000     Total SCF correction =     0.000000


     Computing stress (Cartesian axis) and pressure


     negative rho (up, down):  9.346E-04 0.000E+00
          total   stress  (Ry/bohr**3)                   (kbar)     P=       31.28
   0.00021263   0.00000000   0.00000000           31.28        0.00        0.00
   0.00000000   0.00021263   0.00000000            0.00       31.28        0.00
   0.00000000   0.00000000   0.00021263            0.00        0.00       31.28


     Writing all to output data dir ./TiFe.save/ :
     XML data file, charge density, pseudopotentials, collected wavefunctions

     init_run     :      1.30s CPU      1.35s WALL (       1 calls)
     electrons    :     28.92s CPU     30.76s WALL (       1 calls)
     forces       :      0.24s CPU      0.26s WALL (       1 calls)
     stress       :      1.33s CPU      1.38s WALL (       1 calls)

     Called by init_run:
     wfcinit      :      0.19s CPU      0.20s WALL (       1 calls)
     potinit      :      0.17s CPU      0.18s WALL (       1 calls)
     hinit0       :      0.70s CPU      0.72s WALL (       1 calls)

     Called by electrons:
     c_bands      :     13.79s CPU     14.10s WALL (      36 calls)
     sum_band     :      8.14s CPU      8.80s WALL (      36 calls)
     v_of_rho     :      0.90s CPU      1.02s WALL (      37 calls)
     newd         :      4.76s CPU      5.27s WALL (      37 calls)
     PAW_pot      :      1.31s CPU      1.36s WALL (      37 calls)
     mix_rho      :      0.11s CPU      0.12s WALL (      36 calls)

     Called by c_bands:
     init_us_2    :      0.21s CPU      0.22s WALL (    2625 calls)
     cegterg      :     13.34s CPU     13.64s WALL (    1260 calls)

     Called by *egterg:
     cdiaghg      :      1.40s CPU      1.43s WALL (    4715 calls)
     h_psi        :     10.83s CPU     11.09s WALL (    4750 calls)
     s_psi        :      0.16s CPU      0.17s WALL (    4750 calls)
     g_psi        :      0.04s CPU      0.04s WALL (    3455 calls)

     Called by h_psi:
     h_psi:calbec :      0.37s CPU      0.38s WALL (    4750 calls)
     vloc_psi     :     10.27s CPU     10.51s WALL (    4750 calls)
     add_vuspsi   :      0.17s CPU      0.17s WALL (    4750 calls)

     General routines
     calbec       :      0.50s CPU      0.51s WALL (    6605 calls)
     fft          :      1.19s CPU      1.39s WALL (     504 calls)
     ffts         :      0.12s CPU      0.12s WALL (      73 calls)
     fftw         :     10.07s CPU     10.31s WALL (  138646 calls)
     interpolate  :      0.16s CPU      0.18s WALL (      37 calls)

     Parallel routines

     PWSCF        :     32.07s CPU     35.52s WALL


   This run was terminated on:  10:54:32  28Oct2025            

=------------------------------------------------------------------------------=
   JOB DONE.
=------------------------------------------------------------------------------=
Note: The following floating-point exceptions are signalling: IEEE_UNDERFLOW_FLAG IEEE_DENORMAL
Note: The following floating-point exceptions are signalling: IEEE_UNDERFLOW_FLAG IEEE_DENORMAL
Note: The following floating-point exceptions are signalling: IEEE_UNDERFLOW_FLAG IEEE_DENORMAL
Note: The following floating-point exceptions are signalling: IEEE_UNDERFLOW_FLAG IEEE_DENORMAL
Note: The following floating-point exceptions are signalling: IEEE_UNDERFLOW_FLAG IEEE_DENORMAL
Note: The following floating-point exceptions are signalling: IEEE_UNDERFLOW_FLAG IEEE_DENORMAL
Note: The following floating-point exceptions are signalling: IEEE_UNDERFLOW_FLAG IEEE_DENORMAL
Note: The following floating-point exceptions are signalling: IEEE_UNDERFLOW_FLAG IEEE_DENORMAL
Note: The following floating-point exceptions are signalling: IEEE_UNDERFLOW_FLAG IEEE_DENORMAL
Note: The following floating-point exceptions are signalling: IEEE_UNDERFLOW_FLAG IEEE_DENORMAL
Note: The following floating-point exceptions are signalling: IEEE_UNDERFLOW_FLAG IEEE_DENORMAL
Note: The following floating-point exceptions are signalling: IEEE_UNDERFLOW_FLAG IEEE_DENORMAL
Note: The following floating-point exceptions are signalling: IEEE_UNDERFLOW_FLAG IEEE_DENORMAL
Note: The following floating-point exceptions are signalling: IEEE_UNDERFLOW_FLAG IEEE_DENORMAL
Note: The following floating-point exceptions are signalling: IEEE_UNDERFLOW_FLAG IEEE_DENORMAL
Note: The following floating-point exceptions are signalling: IEEE_UNDERFLOW_FLAG IEEE_DENORMAL
