
     Program PWSCF v.7.4 starts on 28Oct2025 at 10:54:32 

     This program is part of the open-source Quantum ESPRESSO suite
     for quantum simulation of materials; please cite
         "P. Giannozzi et al., J. Phys.:Condens. Matter 21 395502 (2009);
         "P. Giannozzi et al., J. Phys.:Condens. Matter 29 465901 (2017);
         "P. Giannozzi et al., J. Chem. Phys. 152 154105 (2020);
          URL http://www.quantum-espresso.org", 
     in publications or presentations arising from this work. More details at
     http://www.quantum-espresso.org/quote

     Parallel version (MPI & OpenMP), running on      16 processor cores
     Number of MPI processes:                16
     Threads/MPI process:                     1

     MPI processes distributed on     1 nodes
     230195 MiB available memory on the printing compute node when the environment starts

     Reading input from TiFe_ecutrho_convergence/TiFe2_factor25.in

     Current dimensions of program PWSCF are:
     Max number of different atomic species (ntypx) = 10
     Max number of k-points (npk) =  40000
     Max angular momentum in pseudopotentials (lmaxx) =  4
     file Fe.pbe-spn-kjpaw_psl.0.2.1.UPF: wavefunction(s)  3D renormalized

     IMPORTANT: XC functional enforced from input :
     Exchange-correlation= PBE
                           (   1   4   3   4   0   0   0)
     Any further DFT definition will be discarded
     Please, verify this is what you really want

     Message from routine setup:
     using ibrav=0 with symmetry is DISCOURAGED, use correct ibrav instead

     R & G space division:  proc/nbgrp/npool/nimage =      16
     Subspace diagonalization in iterative solution of the eigenvalue problem:
     a serial algorithm will be used


     Parallelization info
     --------------------
     sticks:   dense  smooth     PW     G-vecs:    dense   smooth      PW
     Min         536      85     25                37444     2399     375
     Max         537      86     26                37451     2402     378
     Sum        8585    1369    401               599161    38401    6031

     Using Slab Decomposition



     bravais-lattice index     =            0
     lattice parameter (alat)  =       5.5533  a.u.
     unit-cell volume          =     171.2590 (a.u.)^3
     number of atoms/cell      =            2
     number of atomic types    =            2
     number of electrons       =        28.00
     number of Kohn-Sham states=           18
     kinetic-energy cutoff     =     140.0000  Ry
     charge density cutoff     =    3500.0000  Ry
     scf convergence threshold =      1.0E-08
     mixing beta               =       0.7000
     number of iterations used =            8  plain     mixing
     Exchange-correlation= PBE
                           (   1   4   3   4   0   0   0)

     celldm(1)=   5.553300  celldm(2)=   0.000000  celldm(3)=   0.000000
     celldm(4)=   0.000000  celldm(5)=   0.000000  celldm(6)=   0.000000

     crystal axes: (cart. coord. in units of alat)
               a(1) = (   1.000000   0.000000   0.000000 )  
               a(2) = (   0.000000   1.000000   0.000000 )  
               a(3) = (   0.000000   0.000000   1.000000 )  

     reciprocal axes: (cart. coord. in units 2 pi/alat)
               b(1) = (  1.000000  0.000000  0.000000 )  
               b(2) = (  0.000000  1.000000  0.000000 )  
               b(3) = (  0.000000  0.000000  1.000000 )  


     PseudoPot. # 1 for Fe read from file:
     ./Fe.pbe-spn-kjpaw_psl.0.2.1.UPF
     MD5 check sum: e86618425769142926afa95317d90200
     Pseudo is Projector augmented-wave + core cor, Zval = 16.0
     Generated using "atomic" code by A. Dal Corso  v.5.0.99 svn rev. 10869
     Shape of augmentation charge: PSQ
     Using radial grid of 1191 points,  6 beta functions with: 
                l(1) =   0
                l(2) =   0
                l(3) =   1
                l(4) =   1
                l(5) =   2
                l(6) =   2
     Q(r) pseudized with 0 coefficients 


     PseudoPot. # 2 for Ti read from file:
     ./Ti_pbe_v1.4.uspp.F.UPF
     MD5 check sum: 88a00a6731bd790ddea75d31a80cb452
     Pseudo is Ultrasoft + core correction, Zval = 12.0
     Generated by new atomic code, or converted to UPF format
     Using radial grid of  851 points,  6 beta functions with: 
                l(1) =   0
                l(2) =   0
                l(3) =   1
                l(4) =   1
                l(5) =   2
                l(6) =   2
     Q(r) pseudized with  6 coefficients,  rinner =    1.000   1.000   1.000
                                                       1.000   1.000

     atomic species   valence    mass     pseudopotential
     Fe               16.00    55.84500     Fe( 1.00)
     Ti               12.00    47.86700     Ti( 1.00)

     48 Sym. Ops., with inversion, found



   Cartesian axes

     site n.     atom                  positions (alat units)
         1        Fe     tau(   1) = (   0.5000000   0.5000000   0.5000000  )
         2        Ti     tau(   2) = (   0.0000000   0.0000000   0.0000000  )

     number of k points=    35  Marzari-Vanderbilt smearing, width (Ry)=  0.0050
                       cart. coord. in units 2pi/alat
        k(    1) = (   0.0000000   0.0000000   0.0000000), wk =   0.0027435
        k(    2) = (   0.0000000   0.0000000   0.1111111), wk =   0.0164609
        k(    3) = (   0.0000000   0.0000000   0.2222222), wk =   0.0164609
        k(    4) = (   0.0000000   0.0000000   0.3333333), wk =   0.0164609
        k(    5) = (   0.0000000   0.0000000   0.4444444), wk =   0.0164609
        k(    6) = (   0.0000000   0.1111111   0.1111111), wk =   0.0329218
        k(    7) = (   0.0000000   0.1111111   0.2222222), wk =   0.0658436
        k(    8) = (   0.0000000   0.1111111   0.3333333), wk =   0.0658436
        k(    9) = (   0.0000000   0.1111111   0.4444444), wk =   0.0658436
        k(   10) = (   0.0000000   0.2222222   0.2222222), wk =   0.0329218
        k(   11) = (   0.0000000   0.2222222   0.3333333), wk =   0.0658436
        k(   12) = (   0.0000000   0.2222222   0.4444444), wk =   0.0658436
        k(   13) = (   0.0000000   0.3333333   0.3333333), wk =   0.0329218
        k(   14) = (   0.0000000   0.3333333   0.4444444), wk =   0.0658436
        k(   15) = (   0.0000000   0.4444444   0.4444444), wk =   0.0329218
        k(   16) = (   0.1111111   0.1111111   0.1111111), wk =   0.0219479
        k(   17) = (   0.1111111   0.1111111   0.2222222), wk =   0.0658436
        k(   18) = (   0.1111111   0.1111111   0.3333333), wk =   0.0658436
        k(   19) = (   0.1111111   0.1111111   0.4444444), wk =   0.0658436
        k(   20) = (   0.1111111   0.2222222   0.2222222), wk =   0.0658436
        k(   21) = (   0.1111111   0.2222222   0.3333333), wk =   0.1316872
        k(   22) = (   0.1111111   0.2222222   0.4444444), wk =   0.1316872
        k(   23) = (   0.1111111   0.3333333   0.3333333), wk =   0.0658436
        k(   24) = (   0.1111111   0.3333333   0.4444444), wk =   0.1316872
        k(   25) = (   0.1111111   0.4444444   0.4444444), wk =   0.0658436
        k(   26) = (   0.2222222   0.2222222   0.2222222), wk =   0.0219479
        k(   27) = (   0.2222222   0.2222222   0.3333333), wk =   0.0658436
        k(   28) = (   0.2222222   0.2222222   0.4444444), wk =   0.0658436
        k(   29) = (   0.2222222   0.3333333   0.3333333), wk =   0.0658436
        k(   30) = (   0.2222222   0.3333333   0.4444444), wk =   0.1316872
        k(   31) = (   0.2222222   0.4444444   0.4444444), wk =   0.0658436
        k(   32) = (   0.3333333   0.3333333   0.3333333), wk =   0.0219479
        k(   33) = (   0.3333333   0.3333333   0.4444444), wk =   0.0658436
        k(   34) = (   0.3333333   0.4444444   0.4444444), wk =   0.0658436
        k(   35) = (   0.4444444   0.4444444   0.4444444), wk =   0.0219479

     Dense  grid:   599161 G-vectors     FFT dimensions: ( 108, 108, 108)

     Smooth grid:    38401 G-vectors     FFT dimensions: (  45,  45,  45)

     Estimated max dynamical RAM per process >     149.50 MB

     Estimated total dynamical RAM >       2.34 GB

     Initial potential from superposition of free atoms

     starting charge      26.9995, renormalised to      28.0000

     negative rho (up, down):  1.339E-03 0.000E+00
     Starting wfcs are   23 randomized atomic wfcs
     Checking if some PAW data can be deallocated... 

     total cpu time spent up to now is        1.5 secs

     per-process dynamical memory:   147.2 Mb

     Self-consistent Calculation

     iteration #  1     ecut=   140.00 Ry     beta= 0.70
     Davidson diagonalization with overlap
     ethr =  1.00E-02,  avg # of iterations =  2.1

     negative rho (up, down):  7.828E-05 0.000E+00

     total cpu time spent up to now is        2.5 secs

     WARNING: integrated charge=    28.00017456, expected=    28.00000000

     total energy              =    -434.60369594 Ry
     estimated scf accuracy    <      17.75208644 Ry

     iteration #  2     ecut=   140.00 Ry     beta= 0.70
     Davidson diagonalization with overlap
     ethr =  1.00E-02,  avg # of iterations =  6.1

     negative rho (up, down):  1.925E-05 0.000E+00

     total cpu time spent up to now is        3.9 secs

     WARNING: integrated charge=    28.00013323, expected=    28.00000000

     total energy              =    -448.37105836 Ry
     estimated scf accuracy    <      67.43007249 Ry

     iteration #  3     ecut=   140.00 Ry     beta= 0.70
     Davidson diagonalization with overlap
     ethr =  1.00E-02,  avg # of iterations =  3.1

     negative rho (up, down):  2.042E-04 0.000E+00

     total cpu time spent up to now is        5.0 secs

     WARNING: integrated charge=    28.00010626, expected=    28.00000000

     total energy              =    -448.64524979 Ry
     estimated scf accuracy    <      16.85365949 Ry

     iteration #  4     ecut=   140.00 Ry     beta= 0.70
     Davidson diagonalization with overlap
     ethr =  1.00E-02,  avg # of iterations =  2.1

     negative rho (up, down):  2.380E-04 0.000E+00

     total cpu time spent up to now is        6.1 secs

     WARNING: integrated charge=    28.00038487, expected=    28.00000000

     total energy              =    -449.12213625 Ry
     estimated scf accuracy    <       4.82792456 Ry

     iteration #  5     ecut=   140.00 Ry     beta= 0.70
     Davidson diagonalization with overlap
     ethr =  1.00E-02,  avg # of iterations =  1.0

     negative rho (up, down):  4.335E-04 0.000E+00

     total cpu time spent up to now is        7.0 secs

     WARNING: integrated charge=    27.99356078, expected=    28.00000000

     total energy              =    -448.93208281 Ry
     estimated scf accuracy    <       4.30722457 Ry

     iteration #  6     ecut=   140.00 Ry     beta= 0.70
     Davidson diagonalization with overlap
     ethr =  1.00E-02,  avg # of iterations =  1.0

     negative rho (up, down):  9.647E-04 0.000E+00

     total cpu time spent up to now is        7.9 secs

     WARNING: integrated charge=    27.99308219, expected=    28.00000000

     total energy              =    -448.13605759 Ry
     estimated scf accuracy    <       3.98106804 Ry

     iteration #  7     ecut=   140.00 Ry     beta= 0.70
     Davidson diagonalization with overlap
     ethr =  1.00E-02,  avg # of iterations =  2.1

     negative rho (up, down):  1.079E-03 0.000E+00

     total cpu time spent up to now is        8.9 secs

     WARNING: integrated charge=    27.99241480, expected=    28.00000000

     total energy              =    -448.65887577 Ry
     estimated scf accuracy    <       0.52880350 Ry

     iteration #  8     ecut=   140.00 Ry     beta= 0.70
     Davidson diagonalization with overlap
     ethr =  1.89E-03,  avg # of iterations =  4.2

     negative rho (up, down):  5.973E-04 0.000E+00

     total cpu time spent up to now is       10.0 secs

     WARNING: integrated charge=    27.99426250, expected=    28.00000000

     total energy              =    -448.03826615 Ry
     estimated scf accuracy    <       4.35747040 Ry

     iteration #  9     ecut=   140.00 Ry     beta= 0.70
     Davidson diagonalization with overlap
     ethr =  1.89E-03,  avg # of iterations =  4.3

     negative rho (up, down):  5.647E-04 0.000E+00

     total cpu time spent up to now is       11.0 secs

     WARNING: integrated charge=    27.99583808, expected=    28.00000000

     total energy              =    -448.69992002 Ry
     estimated scf accuracy    <       1.54011288 Ry

     iteration # 10     ecut=   140.00 Ry     beta= 0.70
     Davidson diagonalization with overlap
     ethr =  1.89E-03,  avg # of iterations =  1.0

     negative rho (up, down):  4.153E-04 0.000E+00

     total cpu time spent up to now is       12.0 secs

     WARNING: integrated charge=    28.00035934, expected=    28.00000000

     total energy              =    -448.66656919 Ry
     estimated scf accuracy    <       1.44511616 Ry

     iteration # 11     ecut=   140.00 Ry     beta= 0.70
     Davidson diagonalization with overlap
     ethr =  1.89E-03,  avg # of iterations =  1.1

     negative rho (up, down):  3.740E-04 0.000E+00

     total cpu time spent up to now is       12.9 secs

     WARNING: integrated charge=    27.99976103, expected=    28.00000000

     total energy              =    -448.72968756 Ry
     estimated scf accuracy    <       0.75849971 Ry

     iteration # 12     ecut=   140.00 Ry     beta= 0.70
     Davidson diagonalization with overlap
     ethr =  1.89E-03,  avg # of iterations =  1.0

     negative rho (up, down):  2.900E-04 0.000E+00

     total cpu time spent up to now is       13.8 secs

     WARNING: integrated charge=    28.00020968, expected=    28.00000000

     total energy              =    -448.81319997 Ry
     estimated scf accuracy    <       1.16666744 Ry

     iteration # 13     ecut=   140.00 Ry     beta= 0.70
     Davidson diagonalization with overlap
     ethr =  1.89E-03,  avg # of iterations =  1.0

     negative rho (up, down):  2.690E-04 0.000E+00

     total cpu time spent up to now is       14.8 secs

     WARNING: integrated charge=    28.00028507, expected=    28.00000000

     total energy              =    -448.84419373 Ry
     estimated scf accuracy    <       1.83810794 Ry

     iteration # 14     ecut=   140.00 Ry     beta= 0.70
     Davidson diagonalization with overlap
     ethr =  1.89E-03,  avg # of iterations =  1.0

     negative rho (up, down):  2.463E-04 0.000E+00

     total cpu time spent up to now is       15.7 secs

     WARNING: integrated charge=    28.00026960, expected=    28.00000000

     total energy              =    -448.88057494 Ry
     estimated scf accuracy    <       1.96377778 Ry

     iteration # 15     ecut=   140.00 Ry     beta= 0.70
     Davidson diagonalization with overlap
     ethr =  1.89E-03,  avg # of iterations =  1.0

     negative rho (up, down):  4.521E-04 0.000E+00

     total cpu time spent up to now is       16.7 secs

     WARNING: integrated charge=    27.99958321, expected=    28.00000000

     total energy              =    -448.66722520 Ry
     estimated scf accuracy    <       2.19326105 Ry

     iteration # 16     ecut=   140.00 Ry     beta= 0.70
     Davidson diagonalization with overlap
     ethr =  1.89E-03,  avg # of iterations =  1.1

     negative rho (up, down):  7.065E-04 0.000E+00

     total cpu time spent up to now is       17.6 secs

     WARNING: integrated charge=    27.99986128, expected=    28.00000000

     total energy              =    -448.57396933 Ry
     estimated scf accuracy    <       1.05585000 Ry

     iteration # 17     ecut=   140.00 Ry     beta= 0.70
     Davidson diagonalization with overlap
     ethr =  1.89E-03,  avg # of iterations =  2.0

     negative rho (up, down):  9.034E-04 0.000E+00

     total cpu time spent up to now is       18.6 secs

     WARNING: integrated charge=    28.00029591, expected=    28.00000000

     total energy              =    -448.58179089 Ry
     estimated scf accuracy    <       0.20504702 Ry

     iteration # 18     ecut=   140.00 Ry     beta= 0.70
     Davidson diagonalization with overlap
     ethr =  7.32E-04,  avg # of iterations =  1.1

     negative rho (up, down):  1.009E-03 0.000E+00

     total cpu time spent up to now is       19.5 secs

     WARNING: integrated charge=    27.99946162, expected=    28.00000000

     total energy              =    -448.57789849 Ry
     estimated scf accuracy    <       0.06253573 Ry

     iteration # 19     ecut=   140.00 Ry     beta= 0.70
     Davidson diagonalization with overlap
     ethr =  2.23E-04,  avg # of iterations =  3.5

     negative rho (up, down):  1.039E-03 0.000E+00

     total cpu time spent up to now is       20.5 secs

     WARNING: integrated charge=    27.99972892, expected=    28.00000000

     total energy              =    -448.58890019 Ry
     estimated scf accuracy    <       0.00808297 Ry

     iteration # 20     ecut=   140.00 Ry     beta= 0.70
     Davidson diagonalization with overlap
     ethr =  2.89E-05,  avg # of iterations =  4.3

     negative rho (up, down):  8.421E-04 0.000E+00

     total cpu time spent up to now is       21.6 secs

     WARNING: integrated charge=    28.00015401, expected=    28.00000000

     total energy              =    -448.57603994 Ry
     estimated scf accuracy    <       0.08020857 Ry

     iteration # 21     ecut=   140.00 Ry     beta= 0.70
     Davidson diagonalization with overlap
     ethr =  2.89E-05,  avg # of iterations =  4.5

     negative rho (up, down):  8.473E-04 0.000E+00

     total cpu time spent up to now is       22.7 secs

     WARNING: integrated charge=    28.00016287, expected=    28.00000000

     total energy              =    -448.58917378 Ry
     estimated scf accuracy    <       0.02730083 Ry

     iteration # 22     ecut=   140.00 Ry     beta= 0.70
     Davidson diagonalization with overlap
     ethr =  2.89E-05,  avg # of iterations =  1.0

     negative rho (up, down):  8.823E-04 0.000E+00

     total cpu time spent up to now is       23.7 secs

     WARNING: integrated charge=    28.00006336, expected=    28.00000000

     total energy              =    -448.58749083 Ry
     estimated scf accuracy    <       0.03125085 Ry

     iteration # 23     ecut=   140.00 Ry     beta= 0.70
     Davidson diagonalization with overlap
     ethr =  2.89E-05,  avg # of iterations =  1.0

     negative rho (up, down):  9.427E-04 0.000E+00

     total cpu time spent up to now is       24.6 secs

     WARNING: integrated charge=    28.00001586, expected=    28.00000000

     total energy              =    -448.58620976 Ry
     estimated scf accuracy    <       0.01552967 Ry

     iteration # 24     ecut=   140.00 Ry     beta= 0.70
     Davidson diagonalization with overlap
     ethr =  2.89E-05,  avg # of iterations =  1.8

     negative rho (up, down):  9.196E-04 0.000E+00

     total cpu time spent up to now is       25.6 secs

     WARNING: integrated charge=    28.00005739, expected=    28.00000000

     total energy              =    -448.58688155 Ry
     estimated scf accuracy    <       0.00239377 Ry

     iteration # 25     ecut=   140.00 Ry     beta= 0.70
     Davidson diagonalization with overlap
     ethr =  8.55E-06,  avg # of iterations =  1.1

     negative rho (up, down):  9.517E-04 0.000E+00

     total cpu time spent up to now is       26.5 secs

     WARNING: integrated charge=    27.99999164, expected=    28.00000000

     total energy              =    -448.58623969 Ry
     estimated scf accuracy    <       0.00463666 Ry

     iteration # 26     ecut=   140.00 Ry     beta= 0.70
     Davidson diagonalization with overlap
     ethr =  8.55E-06,  avg # of iterations =  1.7

     negative rho (up, down):  9.516E-04 0.000E+00

     total cpu time spent up to now is       27.5 secs

     WARNING: integrated charge=    27.99999031, expected=    28.00000000

     total energy              =    -448.58654840 Ry
     estimated scf accuracy    <       0.00002152 Ry

     iteration # 27     ecut=   140.00 Ry     beta= 0.70
     Davidson diagonalization with overlap
     ethr =  7.69E-08,  avg # of iterations =  5.1

     negative rho (up, down):  9.503E-04 0.000E+00

     total cpu time spent up to now is       28.6 secs

     total energy              =    -448.58658286 Ry
     estimated scf accuracy    <       0.00001200 Ry

     iteration # 28     ecut=   140.00 Ry     beta= 0.70
     Davidson diagonalization with overlap
     ethr =  4.29E-08,  avg # of iterations =  1.4

     negative rho (up, down):  9.508E-04 0.000E+00

     total cpu time spent up to now is       29.6 secs

     total energy              =    -448.58658371 Ry
     estimated scf accuracy    <       0.00000182 Ry

     iteration # 29     ecut=   140.00 Ry     beta= 0.70
     Davidson diagonalization with overlap
     ethr =  6.50E-09,  avg # of iterations =  2.0

     negative rho (up, down):  9.506E-04 0.000E+00

     total cpu time spent up to now is       30.5 secs

     total energy              =    -448.58658363 Ry
     estimated scf accuracy    <       0.00000359 Ry

     iteration # 30     ecut=   140.00 Ry     beta= 0.70
     Davidson diagonalization with overlap
     ethr =  6.50E-09,  avg # of iterations =  1.1

     negative rho (up, down):  9.506E-04 0.000E+00

     total cpu time spent up to now is       31.5 secs

     total energy              =    -448.58658367 Ry
     estimated scf accuracy    <       0.00000158 Ry

     iteration # 31     ecut=   140.00 Ry     beta= 0.70
     Davidson diagonalization with overlap
     ethr =  5.65E-09,  avg # of iterations =  1.0

     negative rho (up, down):  9.506E-04 0.000E+00

     total cpu time spent up to now is       32.4 secs

     total energy              =    -448.58658369 Ry
     estimated scf accuracy    <       0.00000154 Ry

     iteration # 32     ecut=   140.00 Ry     beta= 0.70
     Davidson diagonalization with overlap
     ethr =  5.50E-09,  avg # of iterations =  1.0

     negative rho (up, down):  9.506E-04 0.000E+00

     total cpu time spent up to now is       33.3 secs

     total energy              =    -448.58658370 Ry
     estimated scf accuracy    <       0.00000167 Ry

     iteration # 33     ecut=   140.00 Ry     beta= 0.70
     Davidson diagonalization with overlap
     ethr =  5.50E-09,  avg # of iterations =  1.0

     negative rho (up, down):  9.506E-04 0.000E+00

     total cpu time spent up to now is       34.3 secs

     total energy              =    -448.58658370 Ry
     estimated scf accuracy    <       0.00000169 Ry

     iteration # 34     ecut=   140.00 Ry     beta= 0.70
     Davidson diagonalization with overlap
     ethr =  5.50E-09,  avg # of iterations =  1.0

     negative rho (up, down):  9.506E-04 0.000E+00

     total cpu time spent up to now is       35.2 secs

     total energy              =    -448.58658369 Ry
     estimated scf accuracy    <       0.00000160 Ry

     iteration # 35     ecut=   140.00 Ry     beta= 0.70
     Davidson diagonalization with overlap
     ethr =  5.50E-09,  avg # of iterations =  1.0

     negative rho (up, down):  9.503E-04 0.000E+00

     total cpu time spent up to now is       36.1 secs

     total energy              =    -448.58658347 Ry
     estimated scf accuracy    <       0.00000147 Ry

     iteration # 36     ecut=   140.00 Ry     beta= 0.70
     Davidson diagonalization with overlap
     ethr =  5.24E-09,  avg # of iterations =  1.5

     negative rho (up, down):  9.503E-04 0.000E+00

     total cpu time spent up to now is       37.1 secs

     total energy              =    -448.58658355 Ry
     estimated scf accuracy    <       0.00000002 Ry

     iteration # 37     ecut=   140.00 Ry     beta= 0.70
     Davidson diagonalization with overlap
     ethr =  6.41E-11,  avg # of iterations =  5.1

     negative rho (up, down):  9.503E-04 0.000E+00

     total cpu time spent up to now is       38.2 secs

     total energy              =    -448.58658356 Ry
     estimated scf accuracy    <       0.00000007 Ry

     iteration # 38     ecut=   140.00 Ry     beta= 0.70
     Davidson diagonalization with overlap
     ethr =  6.41E-11,  avg # of iterations =  2.9

     negative rho (up, down):  9.503E-04 0.000E+00

     total cpu time spent up to now is       39.2 secs

     End of self-consistent calculation

          k = 0.0000 0.0000 0.0000 (  4801 PWs)   bands (ev):

   -69.2041 -39.1406 -35.2660 -35.2660 -35.2660 -15.2355 -15.2355 -15.2355
    10.1529  13.8668  13.8668  16.6615  16.6615  16.6615  19.0045  19.0045
    20.9451  20.9451

          k = 0.0000 0.0000 0.1111 (  4821 PWs)   bands (ev):

   -69.2037 -39.1375 -35.2697 -35.2655 -35.2655 -15.2786 -15.2329 -15.2329
    10.4101  13.9907  13.9987  16.6430  16.6430  16.7176  18.8474  19.0622
    20.5825  20.5825

          k = 0.0000 0.0000 0.2222 (  4801 PWs)   bands (ev):

   -69.2027 -39.1296 -35.2791 -35.2640 -35.2640 -15.3867 -15.2264 -15.2264
    11.1436  14.3128  14.3486  16.6064  16.6064  16.8690  18.4024  19.1658
    19.8174  19.8174

          k = 0.0000 0.0000 0.3333 (  4789 PWs)   bands (ev):

   -69.2015 -39.1206 -35.2896 -35.2624 -35.2624 -15.5077 -15.2190 -15.2190
    12.2344  14.5612  14.8884  16.5885  16.5885  17.0615  17.7587  19.0700
    19.0900  19.0900

          k = 0.0000 0.0000 0.4444 (  4805 PWs)   bands (ev):

   -69.2008 -39.1147 -35.2964 -35.2613 -35.2613 -15.5856 -15.2141 -15.2141
    13.4362  14.3573  15.4424  16.5970  16.5970  17.1342  17.2029  18.6545
    18.6545  18.6887

          k = 0.0000 0.1111 0.1111 (  4805 PWs)   bands (ev):

   -69.2033 -39.1341 -35.2711 -35.2677 -35.2649 -15.2799 -15.2710 -15.2302
    10.6595  14.1027  14.1345  16.5212  16.6076  16.8505  18.8365  19.0205
    20.2147  20.2230

          k = 0.0000 0.1111 0.2222 (  4791 PWs)   bands (ev):

   -69.2023 -39.1254 -35.2799 -35.2679 -35.2635 -15.3824 -15.2670 -15.2232
    11.3672  14.3908  14.4887  16.4127  16.5286  16.9761  18.5222  19.1067
    19.5190  19.6219

          k = 0.0000 0.1111 0.3333 (  4791 PWs)   bands (ev):

   -69.2011 -39.1156 -35.2907 -35.2673 -35.2619 -15.5015 -15.2581 -15.2153
    12.4071  14.6302  14.9694  16.3813  16.4516  16.9784  18.0219  18.7290
    19.1997  19.2931

          k = 0.0000 0.1111 0.4444 (  4805 PWs)   bands (ev):

   -69.2004 -39.1092 -35.2978 -35.2669 -35.2608 -15.5783 -15.2522 -15.2101
    13.5282  14.4159  15.4511  16.3728  16.4280  16.8599  17.6152  18.3322
    19.0624  19.1222

          k = 0.0000 0.2222 0.2222 (  4791 PWs)   bands (ev):

   -69.2013 -39.1150 -35.2839 -35.2759 -35.2621 -15.3804 -15.3599 -15.2151
    11.9851  14.5178  14.9058  16.1679  16.3906  16.9253  18.6821  18.9279
    19.0776  19.4448

          k = 0.0000 0.2222 0.3333 (  4797 PWs)   bands (ev):

   -69.2001 -39.1031 -35.2937 -35.2796 -35.2606 -15.4860 -15.3561 -15.2059
    12.8342  14.5595  15.4148  16.0315  16.3566  16.6322  18.4523  18.5680
    19.2725  19.5513

          k = 0.0000 0.2222 0.4444 (  4798 PWs)   bands (ev):

   -69.1994 -39.0954 -35.3012 -35.2810 -35.2596 -15.5597 -15.3478 -15.1999
    13.6334  14.3473  15.7686  16.0520  16.3089  16.5254  18.1621  18.3866
    19.4419  19.7735

          k = 0.0000 0.3333 0.3333 (  4773 PWs)   bands (ev):

   -69.1990 -39.0888 -35.2986 -35.2923 -35.2592 -15.4749 -15.4593 -15.1953
    13.2771  14.3424  15.7743  16.0818  16.1900  16.5974  18.4984  18.9571
    19.1304  20.0106

          k = 0.0000 0.3333 0.4444 (  4797 PWs)   bands (ev):

   -69.1982 -39.0795 -35.3053 -35.2970 -35.2582 -15.5384 -15.4551 -15.1883
    13.5431  14.1320  15.7014  15.8512  16.5379  17.2527  18.2578  19.0236
    19.3898  20.4026

          k = 0.0000 0.4444 0.4444 (  4768 PWs)   bands (ev):

   -69.1975 -39.0691 -35.3081 -35.3072 -35.2573 -15.5256 -15.5232 -15.1807
    13.4110  13.9879  15.5239  15.5746  17.4120  17.8950  18.6533  18.8990
    19.4001  20.7933

          k = 0.1111 0.1111 0.1111 (  4800 PWs)   bands (ev):

   -69.2029 -39.1304 -35.2705 -35.2705 -35.2661 -15.2798 -15.2684 -15.2684
    10.9028  14.2397  14.2397  16.4825  16.4825  16.9329  18.9192  18.9192
    19.6873  20.5510

          k = 0.1111 0.1111 0.2222 (  4798 PWs)   bands (ev):

   -69.2019 -39.1212 -35.2802 -35.2690 -35.2664 -15.3781 -15.2656 -15.2617
    11.5900  14.5391  14.5601  16.3346  16.3838  16.9340  18.6337  19.0554
    19.2934  19.7870

          k = 0.1111 0.1111 0.3333 (  4800 PWs)   bands (ev):

   -69.2007 -39.1107 -35.2915 -35.2673 -35.2665 -15.4956 -15.2548 -15.2540
    12.5887  14.7777  14.9749  16.2511  16.3095  16.7823  18.2364  18.8268
    19.0884  19.4697

          k = 0.1111 0.1111 0.4444 (  4800 PWs)   bands (ev):

   -69.2000 -39.1039 -35.2989 -35.2666 -35.2662 -15.5715 -15.2490 -15.2476
    13.6445  14.5217  15.4012  16.0883  16.4641  16.6557  17.9099  18.4426
    18.6927  19.7758

          k = 0.1111 0.2222 0.2222 (  4790 PWs)   bands (ev):

   -69.2009 -39.1105 -35.2833 -35.2767 -35.2667 -15.3750 -15.3572 -15.2549
    12.2043  14.6853  14.9560  16.1097  16.2317  16.6656  18.7809  19.0554
    19.1790  19.5655

          k = 0.1111 0.2222 0.3333 (  4796 PWs)   bands (ev):

   -69.1997 -39.0983 -35.2938 -35.2795 -35.2658 -15.4809 -15.3524 -15.2450
    13.0401  14.7476  15.3797  15.9600  16.1842  16.3783  18.6604  18.7092
    19.1639  19.8258

          k = 0.1111 0.2222 0.4444 (  4800 PWs)   bands (ev):

   -69.1990 -39.0904 -35.3017 -35.2804 -35.2651 -15.5541 -15.3443 -15.2385
    13.8090  14.5241  15.5936  15.8928  16.2207  16.4967  18.2710  18.5493
    18.9339  20.4575

          k = 0.1111 0.3333 0.3333 (  4787 PWs)   bands (ev):

   -69.1986 -39.0842 -35.2979 -35.2924 -35.2645 -15.4699 -15.4565 -15.2343
    13.4983  14.5253  15.7244  16.0002  16.0455  16.3675  18.5346  19.0228
    19.1245  20.3729

          k = 0.1111 0.3333 0.4444 (  4784 PWs)   bands (ev):

   -69.1978 -39.0749 -35.3050 -35.2964 -35.2637 -15.5344 -15.4519 -15.2273
    13.7459  14.3194  15.6446  15.7440  16.4458  17.0249  18.2490  18.9232
    19.2085  20.7257

          k = 0.1111 0.4444 0.4444 (  4772 PWs)   bands (ev):

   -69.1971 -39.0648 -35.3074 -35.3065 -35.2627 -15.5225 -15.5204 -15.2199
    13.6145  14.1772  15.4905  15.5315  17.3097  17.6413  18.3852  18.4777
    19.5191  20.9966

          k = 0.2222 0.2222 0.2222 (  4800 PWs)   bands (ev):

   -69.1999 -39.0991 -35.2817 -35.2817 -35.2753 -15.3658 -15.3501 -15.3501
    12.8008  15.0891  15.0891  15.9657  15.9657  16.1367  18.9758  18.9758
    19.7333  19.8017

          k = 0.2222 0.2222 0.3333 (  4793 PWs)   bands (ev):

   -69.1987 -39.0862 -35.2941 -35.2798 -35.2782 -15.4680 -15.3440 -15.3421
    13.5720  15.2105  15.2562  15.8007  15.8791  15.9763  18.8095  18.8384
    19.2744  20.2073

          k = 0.2222 0.2222 0.4444 (  4788 PWs)   bands (ev):

   -69.1980 -39.0777 -35.3029 -35.2795 -35.2786 -15.5402 -15.3368 -15.3337
    14.1885  14.8272  15.3912  15.6744  16.0216  16.3836  18.3151  18.6274
    19.0636  20.5595

          k = 0.2222 0.3333 0.3333 (  4791 PWs)   bands (ev):

   -69.1976 -39.0723 -35.2961 -35.2928 -35.2781 -15.4572 -15.4493 -15.3321
    14.1080  14.9633  15.6086  15.6569  15.8760  15.9301  18.5788  18.7297
    19.5874  20.3141

          k = 0.2222 0.3333 0.4444 (  4790 PWs)   bands (ev):

   -69.1968 -39.0632 -35.3043 -35.2949 -35.2774 -15.5243 -15.4438 -15.3249
    14.2951  14.7586  15.5185  15.5651  16.1327  16.5574  18.2058  18.5103
    19.6339  20.6968

          k = 0.2222 0.4444 0.4444 (  4769 PWs)   bands (ev):

   -69.1961 -39.0537 -35.3055 -35.3049 -35.2763 -15.5145 -15.5132 -15.3182
    14.1815  14.6483  15.4206  15.4503  16.8820  16.9026  18.0404  18.2421
    19.9146  21.0512

          k = 0.3333 0.3333 0.3333 (  4797 PWs)   bands (ev):

   -69.1964 -39.0588 -35.2940 -35.2940 -35.2927 -15.4436 -15.4411 -15.4411
    14.8408  15.1325  15.5030  15.5030  15.7488  15.7488  18.4423  18.4423
    20.2355  20.2355

          k = 0.3333 0.3333 0.4444 (  4783 PWs)   bands (ev):

   -69.1957 -39.0499 -35.3036 -35.2934 -35.2926 -15.5127 -15.4357 -15.4333
    14.8623  15.0703  15.4789  15.5726  15.7994  16.2221  18.0781  18.2967
    20.2289  20.7868

          k = 0.3333 0.4444 0.4444 (  4769 PWs)   bands (ev):

   -69.1950 -39.0412 -35.3033 -35.3031 -35.2918 -15.5053 -15.5051 -15.4284
    14.9323  15.1371  15.3877  15.4789  16.1952  16.2708  17.9125  18.1057
    20.5428  21.0945

          k = 0.4444 0.4444 0.4444 (  4758 PWs)   bands (ev):

   -69.1942 -39.0329 -35.3020 -35.3018 -35.3018 -15.4997 -15.4997 -15.4992
    15.2787  15.4657  15.4657  15.7970  15.7970  15.8049  17.8842  17.8842
    21.1208  21.1208

     the Fermi energy is    17.6492 ev

!    total energy              =    -448.58658357 Ry
     estimated scf accuracy    <          1.6E-09 Ry
     smearing contrib. (-TS)   =      -0.00008117 Ry
     internal energy E=F+TS    =    -448.58650240 Ry

     The total energy is F=E-TS. E is the sum of the following terms:
     one-electron contribution =    -151.35302563 Ry
     hartree contribution      =      91.63014072 Ry
     xc contribution           =     -52.88917089 Ry
     ewald contribution        =    -259.82070277 Ry
     one-center paw contrib.   =     -76.15374382 Ry

     convergence has been achieved in  38 iterations

     negative rho (up, down):  9.503E-04 0.000E+00

     Forces acting on atoms (cartesian axes, Ry/au):

     atom    1 type  1   force =     0.00000000    0.00000000    0.00000000
     atom    2 type  2   force =     0.00000000    0.00000000    0.00000000

     Total force =     0.000000     Total SCF correction =     0.000000


     Computing stress (Cartesian axis) and pressure


     negative rho (up, down):  9.503E-04 0.000E+00
          total   stress  (Ry/bohr**3)                   (kbar)     P=       31.40
   0.00021343   0.00000000   0.00000000           31.40        0.00        0.00
   0.00000000   0.00021343   0.00000000            0.00       31.40        0.00
   0.00000000   0.00000000   0.00021343            0.00        0.00       31.40


     Writing all to output data dir ./TiFe.save/ :
     XML data file, charge density, pseudopotentials, collected wavefunctions

     init_run     :      1.25s CPU      1.30s WALL (       1 calls)
     electrons    :     35.39s CPU     37.91s WALL (       1 calls)
     forces       :      0.36s CPU      0.39s WALL (       1 calls)
     stress       :      1.84s CPU      1.91s WALL (       1 calls)

     Called by init_run:
     wfcinit      :      0.21s CPU      0.21s WALL (       1 calls)
     potinit      :      0.19s CPU      0.20s WALL (       1 calls)
     hinit0       :      0.51s CPU      0.52s WALL (       1 calls)

     Called by electrons:
     c_bands      :     13.72s CPU     14.05s WALL (      38 calls)
     sum_band     :     11.32s CPU     12.31s WALL (      38 calls)
     v_of_rho     :      1.48s CPU      1.62s WALL (      39 calls)
     newd         :      7.42s CPU      8.20s WALL (      39 calls)
     PAW_pot      :      1.39s CPU      1.43s WALL (      39 calls)
     mix_rho      :      0.15s CPU      0.18s WALL (      38 calls)

     Called by c_bands:
     init_us_2    :      0.22s CPU      0.23s WALL (    2765 calls)
     cegterg      :     13.24s CPU     13.55s WALL (    1330 calls)

     Called by *egterg:
     cdiaghg      :      1.20s CPU      1.23s WALL (    4107 calls)
     h_psi        :     11.11s CPU     11.36s WALL (    4142 calls)
     s_psi        :      0.15s CPU      0.16s WALL (    4142 calls)
     g_psi        :      0.03s CPU      0.03s WALL (    2777 calls)

     Called by h_psi:
     h_psi:calbec :      0.33s CPU      0.34s WALL (    4142 calls)
     vloc_psi     :     10.59s CPU     10.84s WALL (    4142 calls)
     add_vuspsi   :      0.15s CPU      0.16s WALL (    4142 calls)

     General routines
     calbec       :      0.49s CPU      0.50s WALL (    6067 calls)
     fft          :      1.40s CPU      1.65s WALL (     530 calls)
     ffts         :      0.12s CPU      0.12s WALL (      77 calls)
     fftw         :     10.34s CPU     10.57s WALL (  134736 calls)
     interpolate  :      0.17s CPU      0.21s WALL (      39 calls)

     Parallel routines

     PWSCF        :     39.12s CPU     43.33s WALL


   This run was terminated on:  10:55:16  28Oct2025            

=------------------------------------------------------------------------------=
   JOB DONE.
=------------------------------------------------------------------------------=
Note: The following floating-point exceptions are signalling: IEEE_UNDERFLOW_FLAG IEEE_DENORMAL
Note: The following floating-point exceptions are signalling: IEEE_UNDERFLOW_FLAG IEEE_DENORMAL
Note: The following floating-point exceptions are signalling: IEEE_UNDERFLOW_FLAG IEEE_DENORMAL
Note: The following floating-point exceptions are signalling: IEEE_UNDERFLOW_FLAG IEEE_DENORMAL
Note: The following floating-point exceptions are signalling: IEEE_UNDERFLOW_FLAG IEEE_DENORMAL
Note: The following floating-point exceptions are signalling: IEEE_UNDERFLOW_FLAG IEEE_DENORMAL
Note: The following floating-point exceptions are signalling: IEEE_UNDERFLOW_FLAG IEEE_DENORMAL
Note: The following floating-point exceptions are signalling: IEEE_UNDERFLOW_FLAG IEEE_DENORMAL
Note: The following floating-point exceptions are signalling: IEEE_UNDERFLOW_FLAG IEEE_DENORMAL
Note: The following floating-point exceptions are signalling: IEEE_UNDERFLOW_FLAG IEEE_DENORMAL
Note: The following floating-point exceptions are signalling: IEEE_UNDERFLOW_FLAG IEEE_DENORMAL
Note: The following floating-point exceptions are signalling: IEEE_UNDERFLOW_FLAG IEEE_DENORMAL
Note: The following floating-point exceptions are signalling: IEEE_UNDERFLOW_FLAG IEEE_DENORMAL
Note: The following floating-point exceptions are signalling: IEEE_UNDERFLOW_FLAG IEEE_DENORMAL
Note: The following floating-point exceptions are signalling: IEEE_UNDERFLOW_FLAG IEEE_DENORMAL
Note: The following floating-point exceptions are signalling: IEEE_UNDERFLOW_FLAG IEEE_DENORMAL
