
     Program PWSCF v.7.4.1 starts on 30Oct2025 at  0:37:38 

     This program is part of the open-source Quantum ESPRESSO suite
     for quantum simulation of materials; please cite
         "P. Giannozzi et al., J. Phys.:Condens. Matter 21 395502 (2009);
         "P. Giannozzi et al., J. Phys.:Condens. Matter 29 465901 (2017);
         "P. Giannozzi et al., J. Chem. Phys. 152 154105 (2020);
          URL http://www.quantum-espresso.org", 
     in publications or presentations arising from this work. More details at
     http://www.quantum-espresso.org/quote

     Parallel version (MPI), running on     4 processors

     MPI processes distributed on     1 nodes
     6049 MiB available memory on the printing compute node when the environment starts

     Reading input from TiFe4.in

     Current dimensions of program PWSCF are:
     Max number of different atomic species (ntypx) = 10
     Max number of k-points (npk) =  40000
     Max angular momentum in pseudopotentials (lmaxx) =  4
     file Fe.pbe-spn-kjpaw_psl.0.2.1.UPF: wavefunction(s)  3D renormalized

     IMPORTANT: XC functional enforced from input :
     Exchange-correlation= PBE
                           (   1   4   3   4   0   0   0)
     Any further DFT definition will be discarded
     Please, verify this is what you really want

     Message from routine setup:
     using ibrav=0 with symmetry is DISCOURAGED, use correct ibrav instead

     R & G space division:  proc/nbgrp/npool/nimage =       4
     Subspace diagonalization in iterative solution of the eigenvalue problem:
     a serial algorithm will be used


     Parallelization info
     --------------------
     sticks:   dense  smooth     PW     G-vecs:    dense   smooth      PW
     Min         478     155     48                15769     2937     524
     Max         481     156     49                15770     2940     527
     Sum        1917     621    193                63077    11753    2103

     Using Slab Decomposition



     bravais-lattice index     =            0
     lattice parameter (alat)  =       5.5533  a.u.
     unit-cell volume          =     171.2590 (a.u.)^3
     number of atoms/cell      =            2
     number of atomic types    =            2
     number of electrons       =        28.00
     number of Kohn-Sham states=           18
     kinetic-energy cutoff     =      64.0000  Ry
     charge density cutoff     =     782.0000  Ry
     scf convergence threshold =      1.0E-08
     mixing beta               =       0.7000
     number of iterations used =            8  plain     mixing
     Exchange-correlation= PBE
                           (   1   4   3   4   0   0   0)

     celldm(1)=   5.553300  celldm(2)=   0.000000  celldm(3)=   0.000000
     celldm(4)=   0.000000  celldm(5)=   0.000000  celldm(6)=   0.000000

     crystal axes: (cart. coord. in units of alat)
               a(1) = (   1.000000   0.000000   0.000000 )  
               a(2) = (   0.000000   1.000000   0.000000 )  
               a(3) = (   0.000000   0.000000   1.000000 )  

     reciprocal axes: (cart. coord. in units 2 pi/alat)
               b(1) = (  1.000000  0.000000  0.000000 )  
               b(2) = (  0.000000  1.000000  0.000000 )  
               b(3) = (  0.000000  0.000000  1.000000 )  


     PseudoPot. # 1 for Fe read from file:
     /home/rafi/QE/qe-7.4.1/pseudo/Fe.pbe-spn-kjpaw_psl.0.2.1.UPF
     MD5 check sum: e86618425769142926afa95317d90200
     Pseudo is Projector augmented-wave + core cor, Zval = 16.0
     Generated using "atomic" code by A. Dal Corso  v.5.0.99 svn rev. 10869
     Shape of augmentation charge: PSQ
     Using radial grid of 1191 points,  6 beta functions with: 
                l(1) =   0
                l(2) =   0
                l(3) =   1
                l(4) =   1
                l(5) =   2
                l(6) =   2
     Q(r) pseudized with 0 coefficients 


     PseudoPot. # 2 for Ti read from file:
     /home/rafi/QE/qe-7.4.1/pseudo/ti_pbe_v1.4.uspp.F.UPF
     MD5 check sum: 88a00a6731bd790ddea75d31a80cb452
     Pseudo is Ultrasoft + core correction, Zval = 12.0
     Generated by new atomic code, or converted to UPF format
     Using radial grid of  851 points,  6 beta functions with: 
                l(1) =   0
                l(2) =   0
                l(3) =   1
                l(4) =   1
                l(5) =   2
                l(6) =   2
     Q(r) pseudized with  6 coefficients,  rinner =    1.000   1.000   1.000
                                                       1.000   1.000

     atomic species   valence    mass     pseudopotential
     Fe               16.00    55.84500     Fe( 1.00)
     Ti               12.00    47.86700     Ti( 1.00)

     48 Sym. Ops., with inversion, found



   Cartesian axes

     site n.     atom                  positions (alat units)
         1        Fe     tau(   1) = (   0.5000000   0.5000000   0.5000000  )
         2        Ti     tau(   2) = (   0.0000000   0.0000000   0.0000000  )

     number of k points=    35  Marzari-Vanderbilt smearing, width (Ry)=  0.0050
                       cart. coord. in units 2pi/alat
        k(    1) = (   0.0000000   0.0000000   0.0000000), wk =   0.0039062
        k(    2) = (   0.0000000   0.0000000   0.1250000), wk =   0.0234375
        k(    3) = (   0.0000000   0.0000000   0.2500000), wk =   0.0234375
        k(    4) = (   0.0000000   0.0000000   0.3750000), wk =   0.0234375
        k(    5) = (   0.0000000   0.0000000  -0.5000000), wk =   0.0117188
        k(    6) = (   0.0000000   0.1250000   0.1250000), wk =   0.0468750
        k(    7) = (   0.0000000   0.1250000   0.2500000), wk =   0.0937500
        k(    8) = (   0.0000000   0.1250000   0.3750000), wk =   0.0937500
        k(    9) = (   0.0000000   0.1250000  -0.5000000), wk =   0.0468750
        k(   10) = (   0.0000000   0.2500000   0.2500000), wk =   0.0468750
        k(   11) = (   0.0000000   0.2500000   0.3750000), wk =   0.0937500
        k(   12) = (   0.0000000   0.2500000  -0.5000000), wk =   0.0468750
        k(   13) = (   0.0000000   0.3750000   0.3750000), wk =   0.0468750
        k(   14) = (   0.0000000   0.3750000  -0.5000000), wk =   0.0468750
        k(   15) = (   0.0000000  -0.5000000  -0.5000000), wk =   0.0117188
        k(   16) = (   0.1250000   0.1250000   0.1250000), wk =   0.0312500
        k(   17) = (   0.1250000   0.1250000   0.2500000), wk =   0.0937500
        k(   18) = (   0.1250000   0.1250000   0.3750000), wk =   0.0937500
        k(   19) = (   0.1250000   0.1250000  -0.5000000), wk =   0.0468750
        k(   20) = (   0.1250000   0.2500000   0.2500000), wk =   0.0937500
        k(   21) = (   0.1250000   0.2500000   0.3750000), wk =   0.1875000
        k(   22) = (   0.1250000   0.2500000  -0.5000000), wk =   0.0937500
        k(   23) = (   0.1250000   0.3750000   0.3750000), wk =   0.0937500
        k(   24) = (   0.1250000   0.3750000  -0.5000000), wk =   0.0937500
        k(   25) = (   0.1250000  -0.5000000  -0.5000000), wk =   0.0234375
        k(   26) = (   0.2500000   0.2500000   0.2500000), wk =   0.0312500
        k(   27) = (   0.2500000   0.2500000   0.3750000), wk =   0.0937500
        k(   28) = (   0.2500000   0.2500000  -0.5000000), wk =   0.0468750
        k(   29) = (   0.2500000   0.3750000   0.3750000), wk =   0.0937500
        k(   30) = (   0.2500000   0.3750000  -0.5000000), wk =   0.0937500
        k(   31) = (   0.2500000  -0.5000000  -0.5000000), wk =   0.0234375
        k(   32) = (   0.3750000   0.3750000   0.3750000), wk =   0.0312500
        k(   33) = (   0.3750000   0.3750000  -0.5000000), wk =   0.0468750
        k(   34) = (   0.3750000  -0.5000000  -0.5000000), wk =   0.0234375
        k(   35) = (  -0.5000000  -0.5000000  -0.5000000), wk =   0.0039062

     Dense  grid:    63077 G-vectors     FFT dimensions: (  50,  50,  50)

     Smooth grid:    11753 G-vectors     FFT dimensions: (  30,  30,  30)

     Estimated max dynamical RAM per process >      65.88 MB

     Estimated total dynamical RAM >     263.53 MB

     Check: negative core charge=   -0.000015

     Initial potential from superposition of free atoms

     starting charge      26.9995, renormalised to      28.0000

     negative rho (up, down):  1.188E-03 0.000E+00
     Starting wfcs are   23 randomized atomic wfcs
     Checking if some PAW data can be deallocated... 

     total cpu time spent up to now is        1.0 secs

     Self-consistent Calculation

     iteration #  1     ecut=    64.00 Ry     beta= 0.70
     Davidson diagonalization with overlap
     ethr =  1.00E-02,  avg # of iterations =  2.2

     negative rho (up, down):  2.076E-04 0.000E+00

     total cpu time spent up to now is        1.9 secs

     total energy              =    -434.96767595 Ry
     estimated scf accuracy    <      17.37300871 Ry

     iteration #  2     ecut=    64.00 Ry     beta= 0.70
     Davidson diagonalization with overlap
     ethr =  1.00E-02,  avg # of iterations =  6.0

     negative rho (up, down):  7.442E-05 0.000E+00

     total cpu time spent up to now is        3.3 secs

     WARNING: integrated charge=    28.00000663, expected=    28.00000000

     total energy              =    -448.56641566 Ry
     estimated scf accuracy    <      65.56608857 Ry

     iteration #  3     ecut=    64.00 Ry     beta= 0.70
     Davidson diagonalization with overlap
     ethr =  1.00E-02,  avg # of iterations =  3.1
     Minimization algorithm failed to find Fermi energy: reverting to bisection
     Possible cause: smearing is larger than the electronic band-gap.

     negative rho (up, down):  1.600E-04 0.000E+00

     total cpu time spent up to now is        4.3 secs

     total energy              =    -448.56326732 Ry
     estimated scf accuracy    <      16.73301759 Ry

     iteration #  4     ecut=    64.00 Ry     beta= 0.70
     Davidson diagonalization with overlap
     ethr =  1.00E-02,  avg # of iterations =  2.2

     negative rho (up, down):  1.980E-04 0.000E+00

     total cpu time spent up to now is        5.2 secs

     total energy              =    -449.09249206 Ry
     estimated scf accuracy    <       4.73204830 Ry

     iteration #  5     ecut=    64.00 Ry     beta= 0.70
     Davidson diagonalization with overlap
     ethr =  1.00E-02,  avg # of iterations =  1.0

     negative rho (up, down):  2.101E-04 0.000E+00

     total cpu time spent up to now is        6.0 secs

     total energy              =    -449.11146306 Ry
     estimated scf accuracy    <       4.32635547 Ry

     iteration #  6     ecut=    64.00 Ry     beta= 0.70
     Davidson diagonalization with overlap
     ethr =  1.00E-02,  avg # of iterations =  1.0

     negative rho (up, down):  4.283E-04 0.000E+00

     total cpu time spent up to now is        6.8 secs

     total energy              =    -448.75604218 Ry
     estimated scf accuracy    <       4.33546205 Ry

     iteration #  7     ecut=    64.00 Ry     beta= 0.70
     Davidson diagonalization with overlap
     ethr =  1.00E-02,  avg # of iterations =  1.1

     negative rho (up, down):  5.834E-04 0.000E+00

     total cpu time spent up to now is        7.6 secs

     total energy              =    -448.74030873 Ry
     estimated scf accuracy    <       2.00265405 Ry

     iteration #  8     ecut=    64.00 Ry     beta= 0.70
     Davidson diagonalization with overlap
     ethr =  7.15E-03,  avg # of iterations =  1.0

     negative rho (up, down):  1.069E-03 0.000E+00

     total cpu time spent up to now is        8.4 secs

     total energy              =    -448.31732093 Ry
     estimated scf accuracy    <       1.98854681 Ry

     iteration #  9     ecut=    64.00 Ry     beta= 0.70
     Davidson diagonalization with overlap
     ethr =  7.10E-03,  avg # of iterations =  2.3

     negative rho (up, down):  9.907E-04 0.000E+00

     total cpu time spent up to now is        9.2 secs

     total energy              =    -448.58364620 Ry
     estimated scf accuracy    <       0.66986314 Ry

     iteration # 10     ecut=    64.00 Ry     beta= 0.70
     Davidson diagonalization with overlap
     ethr =  2.39E-03,  avg # of iterations =  1.2

     negative rho (up, down):  1.204E-03 0.000E+00

     total cpu time spent up to now is       10.0 secs

     total energy              =    -448.69473934 Ry
     estimated scf accuracy    <       0.35501224 Ry

     iteration # 11     ecut=    64.00 Ry     beta= 0.70
     Davidson diagonalization with overlap
     ethr =  1.27E-03,  avg # of iterations =  4.7

     negative rho (up, down):  2.205E-03 0.000E+00

     total cpu time spent up to now is       11.0 secs

     total energy              =    -449.56930574 Ry
     estimated scf accuracy    <       6.25498754 Ry

     iteration # 12     ecut=    64.00 Ry     beta= 0.70
     Davidson diagonalization with overlap
     ethr =  1.27E-03,  avg # of iterations =  4.5

     negative rho (up, down):  7.512E-04 0.000E+00

     total cpu time spent up to now is       12.0 secs

     total energy              =    -446.79223220 Ry
     estimated scf accuracy    <      26.35811767 Ry

     iteration # 13     ecut=    64.00 Ry     beta= 0.70
     Davidson diagonalization with overlap
     ethr =  1.27E-03,  avg # of iterations =  5.3

     negative rho (up, down):  7.104E-04 0.000E+00

     total cpu time spent up to now is       13.1 secs

     total energy              =    -448.59273100 Ry
     estimated scf accuracy    <       0.74709354 Ry

     iteration # 14     ecut=    64.00 Ry     beta= 0.70
     Davidson diagonalization with overlap
     ethr =  1.27E-03,  avg # of iterations =  1.0

     negative rho (up, down):  5.690E-04 0.000E+00

     total cpu time spent up to now is       13.9 secs

     total energy              =    -448.66147142 Ry
     estimated scf accuracy    <       0.31237667 Ry

     iteration # 15     ecut=    64.00 Ry     beta= 0.70
     Davidson diagonalization with overlap
     ethr =  1.12E-03,  avg # of iterations =  1.2

     negative rho (up, down):  1.029E-03 0.000E+00

     total cpu time spent up to now is       14.8 secs

     total energy              =    -448.47751866 Ry
     estimated scf accuracy    <       1.18848085 Ry

     iteration # 16     ecut=    64.00 Ry     beta= 0.70
     Davidson diagonalization with overlap
     ethr =  1.12E-03,  avg # of iterations =  3.1

     negative rho (up, down):  8.034E-04 0.000E+00

     total cpu time spent up to now is       15.8 secs

     total energy              =    -448.55931277 Ry
     estimated scf accuracy    <       0.07101112 Ry

     iteration # 17     ecut=    64.00 Ry     beta= 0.70
     Davidson diagonalization with overlap
     ethr =  2.54E-04,  avg # of iterations =  3.1

     negative rho (up, down):  8.663E-04 0.000E+00

     total cpu time spent up to now is       16.8 secs

     total energy              =    -448.57321762 Ry
     estimated scf accuracy    <       0.18892818 Ry

     iteration # 18     ecut=    64.00 Ry     beta= 0.70
     Davidson diagonalization with overlap
     ethr =  2.54E-04,  avg # of iterations =  1.3

     negative rho (up, down):  8.417E-04 0.000E+00

     total cpu time spent up to now is       17.7 secs

     total energy              =    -448.57983043 Ry
     estimated scf accuracy    <       0.01485994 Ry

     iteration # 19     ecut=    64.00 Ry     beta= 0.70
     Davidson diagonalization with overlap
     ethr =  5.31E-05,  avg # of iterations =  1.6

     negative rho (up, down):  8.417E-04 0.000E+00

     total cpu time spent up to now is       18.6 secs

     total energy              =    -448.57883578 Ry
     estimated scf accuracy    <       0.03071542 Ry

     iteration # 20     ecut=    64.00 Ry     beta= 0.70
     Davidson diagonalization with overlap
     ethr =  5.31E-05,  avg # of iterations =  1.2

     negative rho (up, down):  8.490E-04 0.000E+00

     total cpu time spent up to now is       19.5 secs

     total energy              =    -448.57849020 Ry
     estimated scf accuracy    <       0.00974795 Ry

     iteration # 21     ecut=    64.00 Ry     beta= 0.70
     Davidson diagonalization with overlap
     ethr =  3.48E-05,  avg # of iterations =  1.5

     negative rho (up, down):  8.857E-04 0.000E+00

     total cpu time spent up to now is       20.4 secs

     total energy              =    -448.57844132 Ry
     estimated scf accuracy    <       0.00159923 Ry

     iteration # 22     ecut=    64.00 Ry     beta= 0.70
     Davidson diagonalization with overlap
     ethr =  5.71E-06,  avg # of iterations =  3.7

     negative rho (up, down):  8.841E-04 0.000E+00

     total cpu time spent up to now is       21.4 secs

     total energy              =    -448.57868867 Ry
     estimated scf accuracy    <       0.00015373 Ry

     iteration # 23     ecut=    64.00 Ry     beta= 0.70
     Davidson diagonalization with overlap
     ethr =  5.49E-07,  avg # of iterations =  3.4

     negative rho (up, down):  8.699E-04 0.000E+00

     total cpu time spent up to now is       22.4 secs

     total energy              =    -448.57871243 Ry
     estimated scf accuracy    <       0.00001533 Ry

     iteration # 24     ecut=    64.00 Ry     beta= 0.70
     Davidson diagonalization with overlap
     ethr =  5.48E-08,  avg # of iterations =  4.4

     negative rho (up, down):  8.702E-04 0.000E+00

     total cpu time spent up to now is       23.5 secs

     total energy              =    -448.57874321 Ry
     estimated scf accuracy    <       0.00030954 Ry

     iteration # 25     ecut=    64.00 Ry     beta= 0.70
     Davidson diagonalization with overlap
     ethr =  5.48E-08,  avg # of iterations =  1.0

     negative rho (up, down):  8.698E-04 0.000E+00

     total cpu time spent up to now is       24.4 secs

     total energy              =    -448.57873460 Ry
     estimated scf accuracy    <       0.00032388 Ry

     iteration # 26     ecut=    64.00 Ry     beta= 0.70
     Davidson diagonalization with overlap
     ethr =  5.48E-08,  avg # of iterations =  1.3

     negative rho (up, down):  8.696E-04 0.000E+00

     total cpu time spent up to now is       25.2 secs

     total energy              =    -448.57873574 Ry
     estimated scf accuracy    <       0.00026479 Ry

     iteration # 27     ecut=    64.00 Ry     beta= 0.70
     Davidson diagonalization with overlap
     ethr =  5.48E-08,  avg # of iterations =  1.0

     negative rho (up, down):  8.744E-04 0.000E+00

     total cpu time spent up to now is       26.1 secs

     total energy              =    -448.57869911 Ry
     estimated scf accuracy    <       0.00021611 Ry

     iteration # 28     ecut=    64.00 Ry     beta= 0.70
     Davidson diagonalization with overlap
     ethr =  5.48E-08,  avg # of iterations =  4.1

     negative rho (up, down):  8.738E-04 0.000E+00

     total cpu time spent up to now is       27.2 secs

     total energy              =    -448.57871123 Ry
     estimated scf accuracy    <       0.00007342 Ry

     iteration # 29     ecut=    64.00 Ry     beta= 0.70
     Davidson diagonalization with overlap
     ethr =  5.48E-08,  avg # of iterations =  2.0

     negative rho (up, down):  8.722E-04 0.000E+00

     total cpu time spent up to now is       28.1 secs

     total energy              =    -448.57871106 Ry
     estimated scf accuracy    <       0.00001337 Ry

     iteration # 30     ecut=    64.00 Ry     beta= 0.70
     Davidson diagonalization with overlap
     ethr =  4.78E-08,  avg # of iterations =  2.3

     negative rho (up, down):  8.724E-04 0.000E+00

     total cpu time spent up to now is       29.1 secs

     total energy              =    -448.57871236 Ry
     estimated scf accuracy    <       0.00000034 Ry

     iteration # 31     ecut=    64.00 Ry     beta= 0.70
     Davidson diagonalization with overlap
     ethr =  1.21E-09,  avg # of iterations =  3.8

     negative rho (up, down):  8.723E-04 0.000E+00

     total cpu time spent up to now is       30.1 secs

     End of self-consistent calculation

          k = 0.0000 0.0000 0.0000 (  1419 PWs)   bands (ev):

   -69.2104 -39.1229 -35.2634 -35.2634 -35.2634 -15.2179 -15.2179 -15.2179
    10.1561  13.8677  13.8677  16.6604  16.6604  16.6604  19.0103  19.0103
    20.9580  20.9580

          k = 0.0000 0.0000 0.1250 (  1458 PWs)   bands (ev):

   -69.2101 -39.1190 -35.2687 -35.2633 -35.2633 -15.2720 -15.2147 -15.2147
    10.4809  14.0240  14.0326  16.6374  16.6374  16.7307  18.8123  19.0815
    20.5114  20.5114

          k = 0.0000 0.0000 0.2500 (  1446 PWs)   bands (ev):

   -69.2089 -39.1095 -35.2800 -35.2612 -35.2612 -15.4008 -15.2069 -15.2069
    11.3943  14.3969  14.4701  16.5973  16.5973  16.9142  18.2613  19.1788
    19.6336  19.6336

          k = 0.0000 0.0000 0.3750 (  1462 PWs)   bands (ev):

   -69.2077 -39.1001 -35.2915 -35.2596 -35.2596 -15.5274 -15.1991 -15.1991
    12.6980  14.5642  15.1113  16.5874  16.5874  17.1232  17.5095  18.8975
    18.8975  18.9365

          k = 0.0000 0.0000-0.5000 (  1462 PWs)   bands (ev):

   -69.2072 -39.0962 -35.2958 -35.2590 -35.2590 -15.5792 -15.1958 -15.1958
    13.8551  14.0994  15.5508  16.5968  16.5968  17.0225  17.2199  18.6045
    18.6111  18.6111

          k = 0.0000 0.1250 0.1250 (  1456 PWs)   bands (ev):

   -69.2096 -39.1146 -35.2704 -35.2662 -35.2625 -15.2731 -15.2624 -15.2112
    10.7931  14.1587  14.2060  16.4852  16.5883  16.8866  18.8101  19.0311
    20.0721  20.0873

          k = 0.0000 0.1250 0.2500 (  1470 PWs)   bands (ev):

   -69.2085 -39.1041 -35.2813 -35.2671 -35.2609 -15.3948 -15.2573 -15.2027
    11.6631  14.4833  14.6407  16.3591  16.4871  16.9898  18.4470  19.0655
    19.3559  19.4862

          k = 0.0000 0.1250 0.3750 (  1484 PWs)   bands (ev):

   -69.2073 -39.0936 -35.2932 -35.2667 -35.2594 -15.5189 -15.2475 -15.1943
    12.8788  14.6276  15.1917  16.3478  16.4027  16.8914  17.9129  18.5220
    19.1897  19.2794

          k = 0.0000 0.1250-0.5000 (  1478 PWs)   bands (ev):

   -69.2068 -39.0892 -35.2978 -35.2664 -35.2587 -15.5698 -15.2434 -15.1908
    13.8988  14.2071  15.5528  16.3360  16.4040  16.7534  17.6597  18.2460
    19.1453  19.1576

          k = 0.0000 0.2500 0.2500 (  1480 PWs)   bands (ev):

   -69.2073 -39.0910 -35.2860 -35.2781 -35.2595 -15.3895 -15.3683 -15.1927
    12.3744  14.5531  15.1697  16.0654  16.3461  16.7916  18.6869  18.7490
    19.1028  19.4954

          k = 0.0000 0.2500 0.3750 (  1495 PWs)   bands (ev):

   -69.2061 -39.0778 -35.2971 -35.2829 -35.2582 -15.4986 -15.3630 -15.1827
    13.2400  14.4545  15.7448  15.9331  16.3803  16.4666  18.3537  18.6283
    19.3447  19.7890

          k = 0.0000 0.2500-0.5000 (  1498 PWs)   bands (ev):

   -69.2057 -39.0724 -35.3022 -35.2841 -35.2576 -15.5470 -15.3570 -15.1785
    13.7783  14.2134  15.9685  15.9910  16.0985  16.7657  18.1083  18.5396
    19.5219  20.0138

          k = 0.0000 0.3750 0.3750 (  1488 PWs)   bands (ev):

   -69.2049 -39.0620 -35.3016 -35.2975 -35.2568 -15.4826 -15.4722 -15.1710
    13.4512  14.1675  15.6562  15.9021  16.5907  17.0357  18.5512  19.1101
    19.1564  20.3605

          k = 0.0000 0.3750-0.5000 (  1482 PWs)   bands (ev):

   -69.2044 -39.0554 -35.3062 -35.3009 -35.2561 -15.5241 -15.4688 -15.1662
    13.4963  14.0383  15.6294  15.6482  16.9627  17.9143  18.0909  19.2443
    19.3301  20.6785

          k = 0.0000-0.5000-0.5000 (  1492 PWs)   bands (ev):

   -69.2039 -39.0484 -35.3082 -35.3082 -35.2555 -15.5147 -15.5147 -15.1610
    13.3665  13.9516  15.4907  15.4907  17.7667  18.1981  18.7315  18.7315
    19.4567  20.9290

          k = 0.1250 0.1250 0.1250 (  1460 PWs)   bands (ev):

   -69.2091 -39.1099 -35.2696 -35.2696 -35.2645 -15.2724 -15.2591 -15.2591
    11.0960  14.3324  14.3324  16.4321  16.4321  16.9506  18.9186  18.9186
    19.5156  20.4709

          k = 0.1250 0.1250 0.2500 (  1471 PWs)   bands (ev):

   -69.2080 -39.0986 -35.2817 -35.2679 -35.2656 -15.3888 -15.2548 -15.2510
    11.9339  14.6840  14.7023  16.2644  16.3003  16.8379  18.6079  19.0282
    19.3057  19.6004

          k = 0.1250 0.1250 0.3750 (  1487 PWs)   bands (ev):

   -69.2068 -39.0872 -35.2943 -35.2663 -35.2662 -15.5111 -15.2429 -15.2426
    13.0819  14.7976  15.1611  16.1272  16.3009  16.6351  18.2122  18.6931
    18.9100  19.7086

          k = 0.1250 0.1250-0.5000 (  1476 PWs)   bands (ev):

   -69.2063 -39.0825 -35.2990 -35.2664 -35.2652 -15.5612 -15.2396 -15.2376
    14.0066  14.3606  15.4730  15.9782  16.5194  16.5277  18.0073  18.3388
    18.6599  20.0682

          k = 0.1250 0.2500 0.2500 (  1473 PWs)   bands (ev):

   -69.2068 -39.0852 -35.2850 -35.2786 -35.2657 -15.3824 -15.3648 -15.2422
    12.6479  14.7759  15.2087  15.9929  16.1385  16.4198  18.8023  19.0767
    19.1441  19.6656

          k = 0.1250 0.2500 0.3750 (  1484 PWs)   bands (ev):

   -69.2056 -39.0718 -35.2969 -35.2823 -35.2648 -15.4923 -15.3585 -15.2313
    13.4980  14.6861  15.6110  15.8410  16.1665  16.2817  18.5202  18.7937
    19.0907  20.2859

          k = 0.1250 0.2500-0.5000 (  1488 PWs)   bands (ev):

   -69.2051 -39.0662 -35.3025 -35.2832 -35.2643 -15.5405 -15.3527 -15.2268
    14.0003  14.4409  15.6666  15.8100  16.1432  16.6740  18.1622  18.7627
    18.8743  20.6256

          k = 0.1250 0.3750 0.3750 (  1479 PWs)   bands (ev):

   -69.2044 -39.0563 -35.3005 -35.2973 -35.2633 -15.4773 -15.4687 -15.2198
    13.7213  14.3976  15.6034  15.7683  16.4980  16.7151  18.4680  18.8502
    19.3387  20.6967

          k = 0.1250 0.3750-0.5000 (  1492 PWs)   bands (ev):

   -69.2039 -39.0499 -35.3059 -35.3001 -35.2630 -15.5198 -15.4651 -15.2151
    13.7493  14.2755  15.5706  15.5782  16.8047  17.4938  18.0882  18.7520
    19.4247  20.8636

          k = 0.1250-0.5000-0.5000 (  1484 PWs)   bands (ev):

   -69.2034 -39.0430 -35.3071 -35.3071 -35.2621 -15.5112 -15.5112 -15.2102
    13.6243  14.1882  15.4528  15.4528  17.7724  18.0071  18.0071  18.1986
    19.6201  21.8738

          k = 0.2500 0.2500 0.2500 (  1469 PWs)   bands (ev):

   -69.2055 -39.0712 -35.2830 -35.2830 -35.2779 -15.3692 -15.3563 -15.3563
    13.3595  15.2997  15.2997  15.7776  15.8262  15.8262  18.9447  18.9447
    19.7591  19.7591

          k = 0.2500 0.2500 0.3750 (  1485 PWs)   bands (ev):

   -69.2044 -39.0571 -35.2972 -35.2812 -35.2812 -15.4772 -15.3478 -15.3474
    14.1157  15.1033  15.3861  15.6669  15.8245  16.0405  18.6027  18.6821
    19.4317  20.3649

          k = 0.2500 0.2500-0.5000 (  1488 PWs)   bands (ev):

   -69.2039 -39.0513 -35.3035 -35.2820 -35.2803 -15.5248 -15.3443 -15.3403
    14.4375  14.8149  15.4229  15.5990  15.9787  16.4955  18.1332  18.5520
    19.3549  20.6571

          k = 0.2500 0.3750 0.3750 (  1481 PWs)   bands (ev):

   -69.2032 -39.0424 -35.2983 -35.2968 -35.2797 -15.4643 -15.4601 -15.3365
    14.4532  14.9006  15.4952  15.5774  16.0417  16.2151  18.4033  18.4206
    19.8749  20.6053

          k = 0.2500 0.3750-0.5000 (  1492 PWs)   bands (ev):

   -69.2028 -39.0363 -35.3046 -35.2980 -35.2792 -15.5092 -15.4560 -15.3319
    14.4242  14.8111  15.4615  15.4801  16.3177  16.7347  18.0080  18.3442
    19.9481  20.9182

          k = 0.2500-0.5000-0.5000 (  1460 PWs)   bands (ev):

   -69.2021 -39.0301 -35.3043 -35.3043 -35.2780 -15.5026 -15.5026 -15.3275
    14.3306  14.7549  15.3853  15.3853  16.9640  16.9640  17.7863  18.1571
    20.1205  21.2430

          k = 0.3750 0.3750 0.3750 (  1487 PWs)   bands (ev):

   -69.2021 -39.0285 -35.2964 -35.2961 -35.2961 -15.4515 -15.4515 -15.4512
    15.0166  15.4419  15.4419  15.4543  15.8379  15.8379  18.1803  18.1803
    20.6235  20.6235

          k = 0.3750 0.3750-0.5000 (  1488 PWs)   bands (ev):

   -69.2016 -39.0227 -35.3031 -35.2958 -35.2954 -15.4985 -15.4480 -15.4459
    15.0674  15.1629  15.5130  15.5830  15.8455  16.2119  17.9117  18.1154
    20.6397  21.0372

          k = 0.3750-0.5000-0.5000 (  1480 PWs)   bands (ev):

   -69.2010 -39.0171 -35.3023 -35.3023 -35.2946 -15.4941 -15.4941 -15.4432
    15.2398  15.3025  15.3952  15.3952  16.1569  16.1569  17.8002  17.9834
    20.8591  21.2723

          k =-0.5000-0.5000-0.5000 (  1472 PWs)   bands (ev):

   -69.2005 -39.0117 -35.3012 -35.3012 -35.3012 -15.4906 -15.4906 -15.4906
    15.5193  15.5193  15.5193  15.7473  15.7473  15.7473  17.8060  17.8060
    21.2844  26.2371

     the Fermi energy is    17.7799 ev

!    total energy              =    -448.57871251 Ry
     estimated scf accuracy    <          9.6E-09 Ry
     smearing contrib. (-TS)   =      -0.00003937 Ry
     internal energy E=F+TS    =    -448.57867313 Ry

     The total energy is F=E-TS. E is the sum of the following terms:
     one-electron contribution =    -151.34722011 Ry
     hartree contribution      =      91.63219550 Ry
     xc contribution           =     -52.89073526 Ry
     ewald contribution        =    -259.82070277 Ry
     one-center paw contrib.   =     -76.15221050 Ry

     convergence has been achieved in  31 iterations

     negative rho (up, down):  8.723E-04 0.000E+00

     Forces acting on atoms (cartesian axes, Ry/au):

     atom    1 type  1   force =     0.00000000    0.00000000    0.00000000
     atom    2 type  2   force =     0.00000000    0.00000000    0.00000000

     Total force =     0.000000     Total SCF correction =     0.000000


     Computing stress (Cartesian axis) and pressure


     negative rho (up, down):  8.723E-04 0.000E+00
          total   stress  (Ry/bohr**3)                   (kbar)     P=       19.37
   0.00013170   0.00000000   0.00000000           19.37        0.00        0.00
   0.00000000   0.00013170   0.00000000            0.00       19.37        0.00
   0.00000000   0.00000000   0.00013170            0.00        0.00       19.37


     Writing all to output data dir ./out/TiFe4.save/ :
     XML data file, charge density, pseudopotentials, collected wavefunctions

     init_run     :      0.72s CPU      0.78s WALL (       1 calls)
     electrons    :     25.54s CPU     29.14s WALL (       1 calls)
     forces       :      0.20s CPU      0.24s WALL (       1 calls)
     stress       :      1.05s CPU      1.14s WALL (       1 calls)

     Called by init_run:
     wfcinit      :      0.21s CPU      0.22s WALL (       1 calls)
     potinit      :      0.13s CPU      0.14s WALL (       1 calls)
     hinit0       :      0.17s CPU      0.17s WALL (       1 calls)

     Called by electrons:
     c_bands      :     14.61s CPU     15.47s WALL (      31 calls)
     sum_band     :      4.58s CPU      5.89s WALL (      31 calls)
     v_of_rho     :      0.61s CPU      0.64s WALL (      32 calls)
     newd         :      2.63s CPU      3.73s WALL (      32 calls)
     PAW_pot      :      3.14s CPU      3.49s WALL (      32 calls)
     mix_rho      :      0.08s CPU      0.08s WALL (      31 calls)

     Called by c_bands:
     init_us_2    :      0.27s CPU      0.28s WALL (    2275 calls)
     cegterg      :     13.96s CPU     14.80s WALL (    1085 calls)

     Called by *egterg:
     cdiaghg      :      1.11s CPU      1.14s WALL (    3767 calls)
     h_psi        :      9.56s CPU     10.31s WALL (    3802 calls)
     s_psi        :      0.71s CPU      0.74s WALL (    3802 calls)
     g_psi        :      0.03s CPU      0.04s WALL (    2682 calls)

     Called by h_psi:
     h_psi:calbec :      0.83s CPU      0.90s WALL (    3802 calls)
     vloc_psi     :      7.95s CPU      8.60s WALL (    3802 calls)
     add_vuspsi   :      0.70s CPU      0.74s WALL (    3802 calls)

     General routines
     calbec       :      1.35s CPU      1.44s WALL (    5482 calls)
     fft          :      0.30s CPU      0.33s WALL (     439 calls)
     ffts         :      0.01s CPU      0.01s WALL (      63 calls)
     fftw         :      7.99s CPU      8.64s WALL (  113762 calls)
     interpolate  :      0.04s CPU      0.04s WALL (      32 calls)

     Parallel routines

     PWSCF        :     27.71s CPU     31.53s WALL


   This run was terminated on:   0:38: 9  30Oct2025            

=------------------------------------------------------------------------------=
   JOB DONE.
=------------------------------------------------------------------------------=
