
     Program PWSCF v.7.4.1 starts on 30Oct2025 at  0:38:44 

     This program is part of the open-source Quantum ESPRESSO suite
     for quantum simulation of materials; please cite
         "P. Giannozzi et al., J. Phys.:Condens. Matter 21 395502 (2009);
         "P. Giannozzi et al., J. Phys.:Condens. Matter 29 465901 (2017);
         "P. Giannozzi et al., J. Chem. Phys. 152 154105 (2020);
          URL http://www.quantum-espresso.org", 
     in publications or presentations arising from this work. More details at
     http://www.quantum-espresso.org/quote

     Parallel version (MPI), running on     4 processors

     MPI processes distributed on     1 nodes
     6130 MiB available memory on the printing compute node when the environment starts

     Reading input from TiFe6.in

     Current dimensions of program PWSCF are:
     Max number of different atomic species (ntypx) = 10
     Max number of k-points (npk) =  40000
     Max angular momentum in pseudopotentials (lmaxx) =  4
     file Fe.pbe-spn-kjpaw_psl.0.2.1.UPF: wavefunction(s)  3D renormalized

     IMPORTANT: XC functional enforced from input :
     Exchange-correlation= PBE
                           (   1   4   3   4   0   0   0)
     Any further DFT definition will be discarded
     Please, verify this is what you really want

     Message from routine setup:
     using ibrav=0 with symmetry is DISCOURAGED, use correct ibrav instead

     R & G space division:  proc/nbgrp/npool/nimage =       4
     Subspace diagonalization in iterative solution of the eigenvalue problem:
     a serial algorithm will be used


     Parallelization info
     --------------------
     sticks:   dense  smooth     PW     G-vecs:    dense   smooth      PW
     Min         478     155     48                15769     2937     524
     Max         481     156     49                15770     2940     527
     Sum        1917     621    193                63077    11753    2103

     Using Slab Decomposition



     bravais-lattice index     =            0
     lattice parameter (alat)  =       5.5533  a.u.
     unit-cell volume          =     171.2590 (a.u.)^3
     number of atoms/cell      =            2
     number of atomic types    =            2
     number of electrons       =        28.00
     number of Kohn-Sham states=           18
     kinetic-energy cutoff     =      64.0000  Ry
     charge density cutoff     =     782.0000  Ry
     scf convergence threshold =      1.0E-08
     mixing beta               =       0.7000
     number of iterations used =            8  plain     mixing
     Exchange-correlation= PBE
                           (   1   4   3   4   0   0   0)

     celldm(1)=   5.553300  celldm(2)=   0.000000  celldm(3)=   0.000000
     celldm(4)=   0.000000  celldm(5)=   0.000000  celldm(6)=   0.000000

     crystal axes: (cart. coord. in units of alat)
               a(1) = (   1.000000   0.000000   0.000000 )  
               a(2) = (   0.000000   1.000000   0.000000 )  
               a(3) = (   0.000000   0.000000   1.000000 )  

     reciprocal axes: (cart. coord. in units 2 pi/alat)
               b(1) = (  1.000000  0.000000  0.000000 )  
               b(2) = (  0.000000  1.000000  0.000000 )  
               b(3) = (  0.000000  0.000000  1.000000 )  


     PseudoPot. # 1 for Fe read from file:
     /home/rafi/QE/qe-7.4.1/pseudo/Fe.pbe-spn-kjpaw_psl.0.2.1.UPF
     MD5 check sum: e86618425769142926afa95317d90200
     Pseudo is Projector augmented-wave + core cor, Zval = 16.0
     Generated using "atomic" code by A. Dal Corso  v.5.0.99 svn rev. 10869
     Shape of augmentation charge: PSQ
     Using radial grid of 1191 points,  6 beta functions with: 
                l(1) =   0
                l(2) =   0
                l(3) =   1
                l(4) =   1
                l(5) =   2
                l(6) =   2
     Q(r) pseudized with 0 coefficients 


     PseudoPot. # 2 for Ti read from file:
     /home/rafi/QE/qe-7.4.1/pseudo/ti_pbe_v1.4.uspp.F.UPF
     MD5 check sum: 88a00a6731bd790ddea75d31a80cb452
     Pseudo is Ultrasoft + core correction, Zval = 12.0
     Generated by new atomic code, or converted to UPF format
     Using radial grid of  851 points,  6 beta functions with: 
                l(1) =   0
                l(2) =   0
                l(3) =   1
                l(4) =   1
                l(5) =   2
                l(6) =   2
     Q(r) pseudized with  6 coefficients,  rinner =    1.000   1.000   1.000
                                                       1.000   1.000

     atomic species   valence    mass     pseudopotential
     Fe               16.00    55.84500     Fe( 1.00)
     Ti               12.00    47.86700     Ti( 1.00)

     48 Sym. Ops., with inversion, found



   Cartesian axes

     site n.     atom                  positions (alat units)
         1        Fe     tau(   1) = (   0.5000000   0.5000000   0.5000000  )
         2        Ti     tau(   2) = (   0.0000000   0.0000000   0.0000000  )

     number of k points=    84  Marzari-Vanderbilt smearing, width (Ry)=  0.0050
                       cart. coord. in units 2pi/alat
        k(    1) = (   0.0000000   0.0000000   0.0000000), wk =   0.0011574
        k(    2) = (   0.0000000   0.0000000   0.0833333), wk =   0.0069444
        k(    3) = (   0.0000000   0.0000000   0.1666667), wk =   0.0069444
        k(    4) = (   0.0000000   0.0000000   0.2500000), wk =   0.0069444
        k(    5) = (   0.0000000   0.0000000   0.3333333), wk =   0.0069444
        k(    6) = (   0.0000000   0.0000000   0.4166667), wk =   0.0069444
        k(    7) = (   0.0000000   0.0000000  -0.5000000), wk =   0.0034722
        k(    8) = (   0.0000000   0.0833333   0.0833333), wk =   0.0138889
        k(    9) = (   0.0000000   0.0833333   0.1666667), wk =   0.0277778
        k(   10) = (   0.0000000   0.0833333   0.2500000), wk =   0.0277778
        k(   11) = (   0.0000000   0.0833333   0.3333333), wk =   0.0277778
        k(   12) = (   0.0000000   0.0833333   0.4166667), wk =   0.0277778
        k(   13) = (   0.0000000   0.0833333  -0.5000000), wk =   0.0138889
        k(   14) = (   0.0000000   0.1666667   0.1666667), wk =   0.0138889
        k(   15) = (   0.0000000   0.1666667   0.2500000), wk =   0.0277778
        k(   16) = (   0.0000000   0.1666667   0.3333333), wk =   0.0277778
        k(   17) = (   0.0000000   0.1666667   0.4166667), wk =   0.0277778
        k(   18) = (   0.0000000   0.1666667  -0.5000000), wk =   0.0138889
        k(   19) = (   0.0000000   0.2500000   0.2500000), wk =   0.0138889
        k(   20) = (   0.0000000   0.2500000   0.3333333), wk =   0.0277778
        k(   21) = (   0.0000000   0.2500000   0.4166667), wk =   0.0277778
        k(   22) = (   0.0000000   0.2500000  -0.5000000), wk =   0.0138889
        k(   23) = (   0.0000000   0.3333333   0.3333333), wk =   0.0138889
        k(   24) = (   0.0000000   0.3333333   0.4166667), wk =   0.0277778
        k(   25) = (   0.0000000   0.3333333  -0.5000000), wk =   0.0138889
        k(   26) = (   0.0000000   0.4166667   0.4166667), wk =   0.0138889
        k(   27) = (   0.0000000   0.4166667  -0.5000000), wk =   0.0138889
        k(   28) = (   0.0000000  -0.5000000  -0.5000000), wk =   0.0034722
        k(   29) = (   0.0833333   0.0833333   0.0833333), wk =   0.0092593
        k(   30) = (   0.0833333   0.0833333   0.1666667), wk =   0.0277778
        k(   31) = (   0.0833333   0.0833333   0.2500000), wk =   0.0277778
        k(   32) = (   0.0833333   0.0833333   0.3333333), wk =   0.0277778
        k(   33) = (   0.0833333   0.0833333   0.4166667), wk =   0.0277778
        k(   34) = (   0.0833333   0.0833333  -0.5000000), wk =   0.0138889
        k(   35) = (   0.0833333   0.1666667   0.1666667), wk =   0.0277778
        k(   36) = (   0.0833333   0.1666667   0.2500000), wk =   0.0555556
        k(   37) = (   0.0833333   0.1666667   0.3333333), wk =   0.0555556
        k(   38) = (   0.0833333   0.1666667   0.4166667), wk =   0.0555556
        k(   39) = (   0.0833333   0.1666667  -0.5000000), wk =   0.0277778
        k(   40) = (   0.0833333   0.2500000   0.2500000), wk =   0.0277778
        k(   41) = (   0.0833333   0.2500000   0.3333333), wk =   0.0555556
        k(   42) = (   0.0833333   0.2500000   0.4166667), wk =   0.0555556
        k(   43) = (   0.0833333   0.2500000  -0.5000000), wk =   0.0277778
        k(   44) = (   0.0833333   0.3333333   0.3333333), wk =   0.0277778
        k(   45) = (   0.0833333   0.3333333   0.4166667), wk =   0.0555556
        k(   46) = (   0.0833333   0.3333333  -0.5000000), wk =   0.0277778
        k(   47) = (   0.0833333   0.4166667   0.4166667), wk =   0.0277778
        k(   48) = (   0.0833333   0.4166667  -0.5000000), wk =   0.0277778
        k(   49) = (   0.0833333  -0.5000000  -0.5000000), wk =   0.0069444
        k(   50) = (   0.1666667   0.1666667   0.1666667), wk =   0.0092593
        k(   51) = (   0.1666667   0.1666667   0.2500000), wk =   0.0277778
        k(   52) = (   0.1666667   0.1666667   0.3333333), wk =   0.0277778
        k(   53) = (   0.1666667   0.1666667   0.4166667), wk =   0.0277778
        k(   54) = (   0.1666667   0.1666667  -0.5000000), wk =   0.0138889
        k(   55) = (   0.1666667   0.2500000   0.2500000), wk =   0.0277778
        k(   56) = (   0.1666667   0.2500000   0.3333333), wk =   0.0555556
        k(   57) = (   0.1666667   0.2500000   0.4166667), wk =   0.0555556
        k(   58) = (   0.1666667   0.2500000  -0.5000000), wk =   0.0277778
        k(   59) = (   0.1666667   0.3333333   0.3333333), wk =   0.0277778
        k(   60) = (   0.1666667   0.3333333   0.4166667), wk =   0.0555556
        k(   61) = (   0.1666667   0.3333333  -0.5000000), wk =   0.0277778
        k(   62) = (   0.1666667   0.4166667   0.4166667), wk =   0.0277778
        k(   63) = (   0.1666667   0.4166667  -0.5000000), wk =   0.0277778
        k(   64) = (   0.1666667  -0.5000000  -0.5000000), wk =   0.0069444
        k(   65) = (   0.2500000   0.2500000   0.2500000), wk =   0.0092593
        k(   66) = (   0.2500000   0.2500000   0.3333333), wk =   0.0277778
        k(   67) = (   0.2500000   0.2500000   0.4166667), wk =   0.0277778
        k(   68) = (   0.2500000   0.2500000  -0.5000000), wk =   0.0138889
        k(   69) = (   0.2500000   0.3333333   0.3333333), wk =   0.0277778
        k(   70) = (   0.2500000   0.3333333   0.4166667), wk =   0.0555556
        k(   71) = (   0.2500000   0.3333333  -0.5000000), wk =   0.0277778
        k(   72) = (   0.2500000   0.4166667   0.4166667), wk =   0.0277778
        k(   73) = (   0.2500000   0.4166667  -0.5000000), wk =   0.0277778
        k(   74) = (   0.2500000  -0.5000000  -0.5000000), wk =   0.0069444
        k(   75) = (   0.3333333   0.3333333   0.3333333), wk =   0.0092593
        k(   76) = (   0.3333333   0.3333333   0.4166667), wk =   0.0277778
        k(   77) = (   0.3333333   0.3333333  -0.5000000), wk =   0.0138889
        k(   78) = (   0.3333333   0.4166667   0.4166667), wk =   0.0277778
        k(   79) = (   0.3333333   0.4166667  -0.5000000), wk =   0.0277778
        k(   80) = (   0.3333333  -0.5000000  -0.5000000), wk =   0.0069444
        k(   81) = (   0.4166667   0.4166667   0.4166667), wk =   0.0092593
        k(   82) = (   0.4166667   0.4166667  -0.5000000), wk =   0.0138889
        k(   83) = (   0.4166667  -0.5000000  -0.5000000), wk =   0.0069444
        k(   84) = (  -0.5000000  -0.5000000  -0.5000000), wk =   0.0011574

     Dense  grid:    63077 G-vectors     FFT dimensions: (  50,  50,  50)

     Smooth grid:    11753 G-vectors     FFT dimensions: (  30,  30,  30)

     Estimated max dynamical RAM per process >      70.86 MB

     Estimated total dynamical RAM >     283.45 MB

     Check: negative core charge=   -0.000015

     Initial potential from superposition of free atoms

     starting charge      26.9995, renormalised to      28.0000

     negative rho (up, down):  1.188E-03 0.000E+00
     Starting wfcs are   23 randomized atomic wfcs
     Checking if some PAW data can be deallocated... 

     total cpu time spent up to now is        1.3 secs

     Self-consistent Calculation

     iteration #  1     ecut=    64.00 Ry     beta= 0.70
     Davidson diagonalization with overlap
     ethr =  1.00E-02,  avg # of iterations =  2.2

     negative rho (up, down):  2.081E-04 0.000E+00

     total cpu time spent up to now is        3.2 secs

     total energy              =    -434.90581525 Ry
     estimated scf accuracy    <      17.44324958 Ry

     iteration #  2     ecut=    64.00 Ry     beta= 0.70
     Davidson diagonalization with overlap
     ethr =  1.00E-02,  avg # of iterations =  6.0

     negative rho (up, down):  7.270E-05 0.000E+00

     total cpu time spent up to now is        6.2 secs

     total energy              =    -448.55675420 Ry
     estimated scf accuracy    <      65.80153737 Ry

     iteration #  3     ecut=    64.00 Ry     beta= 0.70
     Davidson diagonalization with overlap
     ethr =  1.00E-02,  avg # of iterations =  3.1

     negative rho (up, down):  1.534E-04 0.000E+00

     total cpu time spent up to now is        8.5 secs

     total energy              =    -448.57811698 Ry
     estimated scf accuracy    <      16.76339515 Ry

     iteration #  4     ecut=    64.00 Ry     beta= 0.70
     Davidson diagonalization with overlap
     ethr =  1.00E-02,  avg # of iterations =  2.1

     negative rho (up, down):  1.914E-04 0.000E+00

     total cpu time spent up to now is       10.3 secs

     total energy              =    -449.10235750 Ry
     estimated scf accuracy    <       4.75866405 Ry

     iteration #  5     ecut=    64.00 Ry     beta= 0.70
     Davidson diagonalization with overlap
     ethr =  1.00E-02,  avg # of iterations =  1.0

     negative rho (up, down):  2.134E-04 0.000E+00

     total cpu time spent up to now is       11.8 secs

     total energy              =    -449.12009421 Ry
     estimated scf accuracy    <       4.33662372 Ry

     iteration #  6     ecut=    64.00 Ry     beta= 0.70
     Davidson diagonalization with overlap
     ethr =  1.00E-02,  avg # of iterations =  1.0

     negative rho (up, down):  8.072E-04 0.000E+00

     total cpu time spent up to now is       13.3 secs

     total energy              =    -448.14063174 Ry
     estimated scf accuracy    <       4.41357824 Ry

     iteration #  7     ecut=    64.00 Ry     beta= 0.70
     Davidson diagonalization with overlap
     ethr =  1.00E-02,  avg # of iterations =  2.1

     negative rho (up, down):  7.814E-04 0.000E+00

     total cpu time spent up to now is       14.9 secs

     total energy              =    -448.55482486 Ry
     estimated scf accuracy    <       0.28476212 Ry

     iteration #  8     ecut=    64.00 Ry     beta= 0.70
     Davidson diagonalization with overlap
     ethr =  1.02E-03,  avg # of iterations =  3.6

     negative rho (up, down):  8.578E-04 0.000E+00

     total cpu time spent up to now is       16.7 secs

     total energy              =    -448.57238940 Ry
     estimated scf accuracy    <       0.09824033 Ry

     iteration #  9     ecut=    64.00 Ry     beta= 0.70
     Davidson diagonalization with overlap
     ethr =  3.51E-04,  avg # of iterations =  3.1

     negative rho (up, down):  9.604E-04 0.000E+00

     total cpu time spent up to now is       18.4 secs

     total energy              =    -448.58263463 Ry
     estimated scf accuracy    <       0.02809043 Ry

     iteration # 10     ecut=    64.00 Ry     beta= 0.70
     Davidson diagonalization with overlap
     ethr =  1.00E-04,  avg # of iterations =  4.8

     negative rho (up, down):  8.907E-04 0.000E+00

     total cpu time spent up to now is       20.6 secs

     total energy              =    -448.59304192 Ry
     estimated scf accuracy    <       0.32255227 Ry

     iteration # 11     ecut=    64.00 Ry     beta= 0.70
     Davidson diagonalization with overlap
     ethr =  1.00E-04,  avg # of iterations =  1.4

     negative rho (up, down):  7.950E-04 0.000E+00

     total cpu time spent up to now is       22.1 secs

     total energy              =    -448.57292084 Ry
     estimated scf accuracy    <       0.16663827 Ry

     iteration # 12     ecut=    64.00 Ry     beta= 0.70
     Davidson diagonalization with overlap
     ethr =  1.00E-04,  avg # of iterations =  3.3

     negative rho (up, down):  7.922E-04 0.000E+00

     total cpu time spent up to now is       23.8 secs

     total energy              =    -448.57647036 Ry
     estimated scf accuracy    <       0.01426902 Ry

     iteration # 13     ecut=    64.00 Ry     beta= 0.70
     Davidson diagonalization with overlap
     ethr =  5.10E-05,  avg # of iterations =  3.8

     negative rho (up, down):  7.818E-04 0.000E+00

     total cpu time spent up to now is       25.7 secs

     total energy              =    -448.58406169 Ry
     estimated scf accuracy    <       0.06287278 Ry

     iteration # 14     ecut=    64.00 Ry     beta= 0.70
     Davidson diagonalization with overlap
     ethr =  5.10E-05,  avg # of iterations =  1.1

     negative rho (up, down):  8.169E-04 0.000E+00

     total cpu time spent up to now is       27.2 secs

     total energy              =    -448.58487241 Ry
     estimated scf accuracy    <       0.07688346 Ry

     iteration # 15     ecut=    64.00 Ry     beta= 0.70
     Davidson diagonalization with overlap
     ethr =  5.10E-05,  avg # of iterations =  1.0

     negative rho (up, down):  8.159E-04 0.000E+00

     total cpu time spent up to now is       28.8 secs

     total energy              =    -448.58465034 Ry
     estimated scf accuracy    <       0.07892458 Ry

     iteration # 16     ecut=    64.00 Ry     beta= 0.70
     Davidson diagonalization with overlap
     ethr =  5.10E-05,  avg # of iterations =  1.0

     negative rho (up, down):  8.454E-04 0.000E+00

     total cpu time spent up to now is       30.4 secs

     total energy              =    -448.57624381 Ry
     estimated scf accuracy    <       0.07506752 Ry

     iteration # 17     ecut=    64.00 Ry     beta= 0.70
     Davidson diagonalization with overlap
     ethr =  5.10E-05,  avg # of iterations =  2.8

     negative rho (up, down):  8.552E-04 0.000E+00

     total cpu time spent up to now is       32.0 secs

     total energy              =    -448.57936165 Ry
     estimated scf accuracy    <       0.00202352 Ry

     iteration # 18     ecut=    64.00 Ry     beta= 0.70
     Davidson diagonalization with overlap
     ethr =  7.23E-06,  avg # of iterations =  2.7

     negative rho (up, down):  8.626E-04 0.000E+00

     total cpu time spent up to now is       33.7 secs

     total energy              =    -448.57942948 Ry
     estimated scf accuracy    <       0.00088553 Ry

     iteration # 19     ecut=    64.00 Ry     beta= 0.70
     Davidson diagonalization with overlap
     ethr =  3.16E-06,  avg # of iterations =  1.6

     negative rho (up, down):  8.630E-04 0.000E+00

     total cpu time spent up to now is       35.3 secs

     total energy              =    -448.57945972 Ry
     estimated scf accuracy    <       0.00028479 Ry

     iteration # 20     ecut=    64.00 Ry     beta= 0.70
     Davidson diagonalization with overlap
     ethr =  1.02E-06,  avg # of iterations =  1.3

     negative rho (up, down):  8.738E-04 0.000E+00

     total cpu time spent up to now is       36.9 secs

     total energy              =    -448.57942455 Ry
     estimated scf accuracy    <       0.00022432 Ry

     iteration # 21     ecut=    64.00 Ry     beta= 0.70
     Davidson diagonalization with overlap
     ethr =  8.01E-07,  avg # of iterations =  2.2

     negative rho (up, down):  8.781E-04 0.000E+00

     total cpu time spent up to now is       38.5 secs

     total energy              =    -448.57943328 Ry
     estimated scf accuracy    <       0.00002555 Ry

     iteration # 22     ecut=    64.00 Ry     beta= 0.70
     Davidson diagonalization with overlap
     ethr =  9.12E-08,  avg # of iterations =  4.2

     negative rho (up, down):  8.767E-04 0.000E+00

     total cpu time spent up to now is       40.6 secs

     total energy              =    -448.57944349 Ry
     estimated scf accuracy    <       0.00000975 Ry

     iteration # 23     ecut=    64.00 Ry     beta= 0.70
     Davidson diagonalization with overlap
     ethr =  3.48E-08,  avg # of iterations =  1.8

     negative rho (up, down):  8.764E-04 0.000E+00

     total cpu time spent up to now is       42.2 secs

     total energy              =    -448.57944409 Ry
     estimated scf accuracy    <       0.00000049 Ry

     iteration # 24     ecut=    64.00 Ry     beta= 0.70
     Davidson diagonalization with overlap
     ethr =  1.75E-09,  avg # of iterations =  4.5

     negative rho (up, down):  8.763E-04 0.000E+00

     total cpu time spent up to now is       44.4 secs

     total energy              =    -448.57944434 Ry
     estimated scf accuracy    <       0.00000005 Ry

     iteration # 25     ecut=    64.00 Ry     beta= 0.70
     Davidson diagonalization with overlap
     ethr =  1.96E-10,  avg # of iterations =  3.5

     negative rho (up, down):  8.763E-04 0.000E+00

     total cpu time spent up to now is       46.3 secs

     total energy              =    -448.57944435 Ry
     estimated scf accuracy    <       0.00000002 Ry

     iteration # 26     ecut=    64.00 Ry     beta= 0.70
     Davidson diagonalization with overlap
     ethr =  7.39E-11,  avg # of iterations =  2.1

     negative rho (up, down):  8.762E-04 0.000E+00

     total cpu time spent up to now is       48.0 secs

     End of self-consistent calculation

          k = 0.0000 0.0000 0.0000 (  1419 PWs)   bands (ev):

   -69.2237 -39.1440 -35.2756 -35.2756 -35.2756 -15.2378 -15.2378 -15.2378
    10.1555  13.8614  13.8614  16.6507  16.6507  16.6507  18.9976  18.9976
    20.9415  20.9415

          k = 0.0000 0.0000 0.0833 (  1450 PWs)   bands (ev):

   -69.2236 -39.1422 -35.2783 -35.2758 -35.2758 -15.2625 -15.2363 -15.2363
    10.3011  13.9312  13.9373  16.6398  16.6398  16.6825  18.9089  19.0313
    20.7289  20.7289

          k = 0.0000 0.0000 0.1667 (  1450 PWs)   bands (ev):

   -69.2230 -39.1373 -35.2842 -35.2748 -35.2748 -15.3297 -15.2323 -15.2323
    10.7259  14.1367  14.1398  16.6137  16.6137  16.7726  18.6508  19.1120
    20.2166  20.2166

          k = 0.0000 0.0000 0.2500 (  1446 PWs)   bands (ev):

   -69.2221 -39.1306 -35.2923 -35.2734 -35.2734 -15.4204 -15.2268 -15.2268
    11.3935  14.3910  14.4635  16.5880  16.5880  16.9046  18.2495  19.1669
    19.6196  19.6196

          k = 0.0000 0.0000 0.3333 (  1458 PWs)   bands (ev):

   -69.2213 -39.1240 -35.3004 -35.2723 -35.2723 -15.5100 -15.2213 -15.2213
    12.2390  14.5600  14.8812  16.5772  16.5772  17.0492  17.7545  19.0626
    19.0911  19.0911

          k = 0.0000 0.0000 0.4167 (  1466 PWs)   bands (ev):

   -69.2207 -39.1191 -35.3062 -35.2716 -35.2716 -15.5749 -15.2172 -15.2172
    13.1521  14.4730  15.3153  16.5825  16.5825  17.1653  17.2620  18.7281
    18.7281  18.7699

          k = 0.0000 0.0000-0.5000 (  1462 PWs)   bands (ev):

   -69.2204 -39.1173 -35.3080 -35.2713 -35.2713 -15.5986 -15.2158 -15.2158
    13.8530  14.0964  15.5443  16.5881  16.5881  17.0113  17.2105  18.5965
    18.5979  18.5979

          k = 0.0000 0.0833 0.0833 (  1456 PWs)   bands (ev):

   -69.2234 -39.1403 -35.2792 -35.2770 -35.2756 -15.2636 -15.2582 -15.2348
    10.4443  13.9993  14.0128  16.5706  16.6234  16.7647  18.8939  19.0063
    20.4896  20.5161

          k = 0.0000 0.0833 0.1667 (  1457 PWs)   bands (ev):

   -69.2228 -39.1352 -35.2846 -35.2770 -35.2747 -15.3278 -15.2560 -15.2306
    10.8614  14.1881  14.2235  16.5010  16.5821  16.8713  18.6898  19.0757
    20.0118  20.0265

          k = 0.0000 0.0833 0.2500 (  1468 PWs)   bands (ev):

   -69.2220 -39.1282 -35.2930 -35.2763 -35.2735 -15.4176 -15.2499 -15.2249
    11.5148  14.4438  14.5286  16.4574  16.5333  16.9649  18.3389  19.1178
    19.4790  19.5343

          k = 0.0000 0.0833 0.3333 (  1480 PWs)   bands (ev):

   -69.2211 -39.1211 -35.3014 -35.2756 -35.2724 -15.5065 -15.2437 -15.2192
    12.3379  14.6098  14.9175  16.4506  16.4896  17.0099  17.9132  18.8125
    19.1500  19.2588

          k = 0.0000 0.0833 0.4167 (  1474 PWs)   bands (ev):

   -69.2205 -39.1160 -35.3070 -35.2750 -35.2714 -15.5708 -15.2392 -15.2150
    13.2196  14.5130  15.3209  16.4399  16.4769  16.9903  17.5290  18.4679
    18.9396  19.0697

          k = 0.0000 0.0833-0.5000 (  1472 PWs)   bands (ev):

   -69.2202 -39.1141 -35.3091 -35.2746 -35.2712 -15.5943 -15.2375 -15.2135
    13.8803  14.1537  15.5326  16.3895  16.4979  16.9642  17.3703  18.3276
    18.8804  18.9523

          k = 0.0000 0.1667 0.1667 (  1460 PWs)   bands (ev):

   -69.2221 -39.1293 -35.2871 -35.2811 -35.2739 -15.3294 -15.3134 -15.2260
    11.2538  14.3271  14.4569  16.3520  16.5050  16.9662  18.7150  19.0372
    19.5403  19.6898

          k = 0.0000 0.1667 0.2500 (  1473 PWs)   bands (ev):

   -69.2213 -39.1214 -35.2945 -35.2829 -35.2728 -15.4103 -15.3123 -15.2197
    11.8603  14.5076  14.7836  16.2415  16.4199  16.9564  18.5444  18.9586
    19.2113  19.4342

          k = 0.0000 0.1667 0.3333 (  1480 PWs)   bands (ev):

   -69.2205 -39.1134 -35.3031 -35.2835 -35.2716 -15.4968 -15.3046 -15.2134
    12.6057  14.6197  15.1403  16.1946  16.3647  16.8220  18.2549  18.5854
    19.3063  19.3499

          k = 0.0000 0.1667 0.4167 (  1478 PWs)   bands (ev):

   -69.2199 -39.1076 -35.3090 -35.2837 -35.2708 -15.5596 -15.2988 -15.2088
    13.3720  14.5125  15.4615  16.2202  16.3576  16.6286  18.0065  18.3137
    19.3250  19.3914

          k = 0.0000 0.1667-0.5000 (  1484 PWs)   bands (ev):

   -69.2197 -39.1054 -35.3113 -35.2838 -35.2707 -15.5825 -15.2967 -15.2071
    13.8902  14.2383  15.6101  16.2675  16.3605  16.5140  17.9419  18.1697
    19.3007  19.4316

          k = 0.0000 0.2500 0.2500 (  1480 PWs)   bands (ev):

   -69.2205 -39.1121 -35.2982 -35.2903 -35.2718 -15.4091 -15.3880 -15.2126
    12.3730  14.5468  15.1635  16.0561  16.3381  16.7826  18.6749  18.7366
    19.0908  19.4808

          k = 0.0000 0.2500 0.3333 (  1476 PWs)   bands (ev):

   -69.2196 -39.1028 -35.3054 -35.2938 -35.2707 -15.4838 -15.3868 -15.2055
    12.9570  14.5095  15.5685  15.9444  16.3737  16.5106  18.4619  18.6592
    19.2339  19.6618

          k = 0.0000 0.2500 0.4167 (  1487 PWs)   bands (ev):

   -69.2191 -39.0960 -35.3119 -35.2957 -35.2700 -15.5443 -15.3795 -15.2003
    13.4883  14.3612  15.8639  15.9287  16.2447  16.5854  18.2279  18.5749
    19.4240  19.8828

          k = 0.0000 0.2500-0.5000 (  1498 PWs)   bands (ev):

   -69.2189 -39.0936 -35.3144 -35.2964 -35.2699 -15.5664 -15.3767 -15.1984
    13.7745  14.2082  15.9627  15.9821  16.0893  16.7596  18.0982  18.5273
    19.5131  19.9996

          k = 0.0000 0.3333 0.3333 (  1498 PWs)   bands (ev):

   -69.2189 -39.0922 -35.3094 -35.3034 -35.2702 -15.4772 -15.4616 -15.1977
    13.2782  14.3387  15.7656  16.0781  16.1806  16.5937  18.4962  18.9525
    19.1269  20.0076

          k = 0.0000 0.3333 0.4167 (  1489 PWs)   bands (ev):

   -69.2182 -39.0845 -35.3148 -35.3072 -35.2692 -15.5290 -15.4592 -15.1919
    13.4966  14.1703  15.6915  15.9106  16.4645  17.0654  18.3652  19.0021
    19.3167  20.3173

          k = 0.0000 0.3333-0.5000 (  1482 PWs)   bands (ev):

   -69.2179 -39.0816 -35.3172 -35.3081 -35.2687 -15.5503 -15.4558 -15.1897
    13.5811  14.0909  15.7222  15.7592  16.5867  17.4947  18.0782  19.0369
    19.4659  20.4793

          k = 0.0000 0.4167 0.4167 (  1488 PWs)   bands (ev):

   -69.2176 -39.0760 -35.3173 -35.3153 -35.2684 -15.5200 -15.5148 -15.1856
    13.4480  14.0334  15.5571  15.6698  17.0915  17.5699  18.6096  19.0104
    19.3178  20.6407

          k = 0.0000 0.4167-0.5000 (  1488 PWs)   bands (ev):

   -69.2174 -39.0728 -35.3196 -35.3171 -35.2681 -15.5385 -15.5133 -15.1834
    13.4215  13.9854  15.5446  15.5522  17.3261  18.0951  18.3029  19.1127
    19.3650  20.8002

          k = 0.0000-0.5000-0.5000 (  1492 PWs)   bands (ev):

   -69.2172 -39.0696 -35.3204 -35.3204 -35.2678 -15.5342 -15.5342 -15.1810
    13.3617  13.9453  15.4818  15.4818  17.7570  18.1878  18.7303  18.7303
    19.4430  20.9134

          k = 0.0833 0.0833 0.0833 (  1457 PWs)   bands (ev):

   -69.2232 -39.1384 -35.2788 -35.2788 -35.2759 -15.2641 -15.2567 -15.2567
    10.5854  14.0768  14.0768  16.5527  16.5527  16.8344  18.9365  18.9365
    20.1213  20.7115

          k = 0.0833 0.0833 0.1667 (  1456 PWs)   bands (ev):

   -69.2225 -39.1330 -35.2847 -35.2779 -35.2758 -15.3258 -15.2558 -15.2526
    10.9957  14.2641  14.2822  16.4573  16.5048  16.9230  18.7339  19.0405
    19.6655  20.1962

          k = 0.0833 0.0833 0.2500 (  1470 PWs)   bands (ev):

   -69.2217 -39.1257 -35.2934 -35.2767 -35.2755 -15.4149 -15.2489 -15.2470
    11.6366  14.5323  14.5590  16.3972  16.4392  16.9588  18.4216  19.0689
    19.3481  19.6045

          k = 0.0833 0.0833 0.3333 (  1482 PWs)   bands (ev):

   -69.2209 -39.1183 -35.3020 -35.2755 -35.2752 -15.5030 -15.2418 -15.2414
    12.4397  14.6852  14.9295  16.3616  16.3994  16.9196  18.0503  18.8221
    19.0915  19.3626

          k = 0.0833 0.0833 0.4167 (  1475 PWs)   bands (ev):

   -69.2203 -39.1130 -35.3077 -35.2748 -35.2746 -15.5669 -15.2373 -15.2367
    13.2933  14.5709  15.3061  16.2602  16.4766  16.8450  17.7212  18.5376
    18.7483  19.4130

          k = 0.0833 0.0833-0.5000 (  1470 PWs)   bands (ev):

   -69.2200 -39.1110 -35.3097 -35.2746 -35.2741 -15.5901 -15.2358 -15.2348
    13.9207  14.2205  15.5041  16.1810  16.5492  16.7972  17.5837  18.3844
    18.6275  19.4430

          k = 0.0833 0.1667 0.1667 (  1466 PWs)   bands (ev):

   -69.2219 -39.1270 -35.2868 -35.2819 -35.2760 -15.3269 -15.3119 -15.2492
    11.3842  14.4123  14.5035  16.3223  16.4140  16.9424  18.7725  19.0068
    19.3360  19.9306

          k = 0.0833 0.1667 0.2500 (  1477 PWs)   bands (ev):

   -69.2211 -39.1188 -35.2946 -35.2832 -35.2755 -15.4076 -15.3103 -15.2426
    11.9832  14.6037  14.8091  16.2056  16.3231  16.8392  18.6150  18.9910
    19.2377  19.5089

          k = 0.0833 0.1667 0.3333 (  1485 PWs)   bands (ev):

   -69.2203 -39.1106 -35.3033 -35.2834 -35.2747 -15.4936 -15.3025 -15.2358
    12.7158  14.7275  15.1216  16.1395  16.2731  16.6733  18.3692  18.7042
    19.1747  19.5298

          k = 0.0833 0.1667 0.4167 (  1481 PWs)   bands (ev):

   -69.2197 -39.1046 -35.3095 -35.2835 -35.2741 -15.5561 -15.2967 -15.2309
    13.4638  14.6080  15.3995  16.0733  16.3494  16.5507  18.1465  18.3964
    18.9605  19.8397

          k = 0.0833 0.1667-0.5000 (  1484 PWs)   bands (ev):

   -69.2194 -39.1025 -35.3117 -35.2837 -35.2739 -15.5789 -15.2945 -15.2290
    13.9645  14.3289  15.5355  16.0246  16.4480  16.4915  18.0710  18.2308
    18.8563  20.0271

          k = 0.0833 0.2500 0.2500 (  1482 PWs)   bands (ev):

   -69.2203 -39.1095 -35.2978 -35.2906 -35.2748 -15.4059 -15.3864 -15.2353
    12.4967  14.6484  15.1813  16.0228  16.2365  16.5994  18.7316  18.9305
    19.0804  19.5598

          k = 0.0833 0.2500 0.3333 (  1479 PWs)   bands (ev):

   -69.2194 -39.1001 -35.3053 -35.2938 -35.2738 -15.4810 -15.3847 -15.2279
    13.0781  14.6161  15.5495  15.9080  16.2634  16.3623  18.5740  18.7391
    19.1788  19.8340

          k = 0.0833 0.2500 0.4167 (  1486 PWs)   bands (ev):

   -69.2188 -39.0933 -35.3121 -35.2953 -35.2731 -15.5414 -15.3775 -15.2225
    13.6000  14.4665  15.7528  15.8752  16.1995  16.5153  18.2948  18.6560
    19.1428  20.2627

          k = 0.0833 0.2500-0.5000 (  1490 PWs)   bands (ev):

   -69.2186 -39.0907 -35.3146 -35.2959 -35.2728 -15.5635 -15.3747 -15.2206
    13.8762  14.3148  15.7881  15.8908  16.1437  16.7214  18.1275  18.6265
    19.0845  20.5755

          k = 0.0833 0.3333 0.3333 (  1479 PWs)   bands (ev):

   -69.2186 -39.0896 -35.3088 -35.3033 -35.2727 -15.4744 -15.4599 -15.2200
    13.4039  14.4435  15.7369  16.0580  16.0679  16.4597  18.5163  19.0474
    19.0666  20.2216

          k = 0.0833 0.3333 0.4167 (  1488 PWs)   bands (ev):

   -69.2180 -39.0818 -35.3147 -35.3070 -35.2721 -15.5267 -15.4573 -15.2142
    13.6153  14.2765  15.6615  15.8368  16.4226  16.9324  18.3538  19.0071
    19.1784  20.6486

          k = 0.0833 0.3333-0.5000 (  1486 PWs)   bands (ev):

   -69.2178 -39.0790 -35.3172 -35.3078 -35.2718 -15.5480 -15.4541 -15.2120
    13.6929  14.2000  15.6836  15.7077  16.5309  17.3486  18.0877  19.0915
    19.1241  20.7568

          k = 0.0833 0.4167 0.4167 (  1476 PWs)   bands (ev):

   -69.2173 -39.0734 -35.3168 -35.3149 -35.2712 -15.5180 -15.5132 -15.2080
    13.5646  14.1412  15.5361  15.6342  17.0368  17.4198  18.4822  18.7977
    19.3840  20.8724

          k = 0.0833 0.4167-0.5000 (  1488 PWs)   bands (ev):

   -69.2171 -39.0703 -35.3192 -35.3167 -35.2711 -15.5367 -15.5116 -15.2058
    13.5364  14.0939  15.5226  15.5283  17.2623  18.0271  18.0866  18.7887
    19.4369  20.9481

          k = 0.0833-0.5000-0.5000 (  1488 PWs)   bands (ev):

   -69.2169 -39.0672 -35.3199 -35.3199 -35.2708 -15.5326 -15.5326 -15.2035
    13.4775  14.0535  15.4640  15.4640  17.7597  18.1889  18.3461  18.3461
    19.5151  21.3954

          k = 0.1667 0.1667 0.1667 (  1466 PWs)   bands (ev):

   -69.2213 -39.1206 -35.2858 -35.2858 -35.2795 -15.3245 -15.3076 -15.3076
    11.7598  14.6374  14.6374  16.2413  16.2413  16.7908  18.9177  18.9177
    19.2492  20.1533

          k = 0.1667 0.1667 0.2500 (  1480 PWs)   bands (ev):

   -69.2205 -39.1118 -35.2946 -35.2847 -35.2815 -15.4004 -15.3074 -15.3018
    12.3325  14.8412  14.9001  16.1068  16.1282  16.5323  18.7806  19.0197
    19.4065  19.5736

          k = 0.1667 0.1667 0.3333 (  1482 PWs)   bands (ev):

   -69.2197 -39.1031 -35.3039 -35.2834 -35.2823 -15.4850 -15.2974 -15.2960
    13.0176  15.0001  15.0836  16.0017  16.0890  16.3642  18.6220  18.8632
    19.0819  19.8208

          k = 0.1667 0.1667 0.4167 (  1483 PWs)   bands (ev):

   -69.2191 -39.0966 -35.3107 -35.2831 -35.2823 -15.5465 -15.2917 -15.2899
    13.6916  14.7939  15.3145  15.8755  16.2063  16.4032  18.4878  18.4977
    18.7591  20.3477

          k = 0.1667 0.1667-0.5000 (  1472 PWs)   bands (ev):

   -69.2188 -39.0943 -35.3129 -35.2832 -35.2818 -15.5689 -15.2902 -15.2872
    14.1181  14.5147  15.4322  15.8012  16.2697  16.5016  18.2686  18.4329
    18.6480  20.5330

          k = 0.1667 0.2500 0.2500 (  1482 PWs)   bands (ev):

   -69.2197 -39.1023 -35.2968 -35.2916 -35.2825 -15.3971 -15.3820 -15.2967
    12.8473  14.9277  15.2294  15.9340  16.0120  16.1955  18.8575  19.0379
    19.3502  19.7803

          k = 0.1667 0.2500 0.3333 (  1480 PWs)   bands (ev):

   -69.2188 -39.0927 -35.3051 -35.2938 -35.2820 -15.4734 -15.3790 -15.2888
    13.4182  14.9092  15.4743  15.8159  16.0074  16.0649  18.7121  18.9108
    19.1662  20.2301

          k = 0.1667 0.2500 0.4167 (  1489 PWs)   bands (ev):

   -69.2182 -39.0856 -35.3124 -35.2946 -35.2817 -15.5334 -15.3720 -15.2828
    13.9049  14.7367  15.5207  15.7406  16.0608  16.3588  18.3962  18.7574
    18.9888  20.5295

          k = 0.1667 0.2500-0.5000 (  1482 PWs)   bands (ev):

   -69.2180 -39.0830 -35.3149 -35.2948 -35.2814 -15.5554 -15.3694 -15.2806
    14.1481  14.5787  15.5374  15.7104  16.0940  16.5958  18.1662  18.7000
    18.9172  20.6077

          k = 0.1667 0.3333 0.3333 (  1483 PWs)   bands (ev):

   -69.2180 -39.0822 -35.3077 -35.3034 -35.2813 -15.4665 -15.4555 -15.2807
    13.7648  14.7258  15.6624  15.8153  15.9948  16.1274  18.5616  18.8864
    19.3208  20.4206

          k = 0.1667 0.3333 0.4167 (  1490 PWs)   bands (ev):

   -69.2174 -39.0746 -35.3141 -35.3062 -35.2807 -15.5204 -15.4522 -15.2748
    13.9549  14.5589  15.5858  15.6728  16.2652  16.6173  18.3419  18.7117
    19.3809  20.6369

          k = 0.1667 0.3333-0.5000 (  1486 PWs)   bands (ev):

   -69.2171 -39.0718 -35.3168 -35.3067 -35.2804 -15.5418 -15.4492 -15.2726
    14.0111  14.4891  15.5861  15.5944  16.3516  16.9957  18.0904  18.6576
    19.3789  20.7435

          k = 0.1667 0.4167 0.4167 (  1481 PWs)   bands (ev):

   -69.2167 -39.0665 -35.3156 -35.3142 -35.2798 -15.5124 -15.5088 -15.2689
    13.9007  14.4322  15.4833  15.5511  16.8526  16.9895  18.3469  18.4193
    19.6075  20.8661

          k = 0.1667 0.4167-0.5000 (  1486 PWs)   bands (ev):

   -69.2165 -39.0635 -35.3182 -35.3154 -35.2795 -15.5318 -15.5071 -15.2668
    13.8680  14.3881  15.4700  15.4703  17.0211  17.4489  18.0307  18.3952
    19.6609  21.0089

          k = 0.1667-0.5000-0.5000 (  1492 PWs)   bands (ev):

   -69.2163 -39.0605 -35.3188 -35.3188 -35.2793 -15.5282 -15.5282 -15.2646
    13.8121  14.3486  15.4203  15.4203  17.6418  17.6418  17.7668  18.1835
    19.7352  21.2052

          k = 0.2500 0.2500 0.2500 (  1469 PWs)   bands (ev):

   -69.2188 -39.0924 -35.2952 -35.2952 -35.2902 -15.3889 -15.3760 -15.3760
    13.3579  15.2933  15.2933  15.7694  15.8175  15.8175  18.9327  18.9327
    19.7451  19.7451

          k = 0.2500 0.2500 0.3333 (  1480 PWs)   bands (ev):

   -69.2180 -39.0824 -35.3049 -35.2940 -35.2928 -15.4630 -15.3720 -15.3700
    13.8934  15.2539  15.3545  15.7050  15.7637  15.8378  18.7582  18.7695
    19.4879  20.1518

          k = 0.2500 0.2500 0.4167 (  1490 PWs)   bands (ev):

   -69.2174 -39.0752 -35.3129 -35.2940 -35.2929 -15.5226 -15.3656 -15.3633
    14.2789  14.9567  15.3988  15.6226  15.8891  16.2382  18.3848  18.6000
    19.3738  20.5079

          k = 0.2500 0.2500-0.5000 (  1488 PWs)   bands (ev):

   -69.2172 -39.0725 -35.3157 -35.2942 -35.2926 -15.5443 -15.3640 -15.3600
    14.4327  14.8087  15.4160  15.5911  15.9712  16.4888  18.1237  18.5402
    19.3413  20.6414

          k = 0.2500 0.3333 0.3333 (  1481 PWs)   bands (ev):

   -69.2171 -39.0722 -35.3061 -35.3037 -35.2927 -15.4558 -15.4495 -15.3629
    14.3053  15.0582  15.5709  15.5991  15.7503  15.8863  18.5635  18.6431
    19.7340  20.2775

          k = 0.2500 0.3333 0.4167 (  1481 PWs)   bands (ev):

   -69.2165 -39.0647 -35.3133 -35.3050 -35.2921 -15.5118 -15.4452 -15.3569
    14.4542  14.8908  15.4970  15.5541  15.9676  16.3074  18.2837  18.4700
    19.7729  20.6182

          k = 0.2500 0.3333-0.5000 (  1490 PWs)   bands (ev):

   -69.2163 -39.0619 -35.3164 -35.3054 -35.2920 -15.5332 -15.4425 -15.3546
    14.4660  14.8329  15.4763  15.5223  16.0752  16.6040  18.0425  18.4243
    19.7736  20.7753

          k = 0.2500 0.4167 0.4167 (  1480 PWs)   bands (ev):

   -69.2159 -39.0570 -35.3140 -35.3132 -35.2913 -15.5048 -15.5027 -15.3513
    14.4087  14.8077  15.4258  15.4875  16.4589  16.5326  18.1505  18.2690
    19.9865  20.8908

          k = 0.2500 0.4167-0.5000 (  1486 PWs)   bands (ev):

   -69.2157 -39.0542 -35.3169 -35.3138 -35.2910 -15.5251 -15.5009 -15.3493
    14.3703  14.7753  15.4158  15.4233  16.5937  16.8468  17.9343  18.2348
    20.0362  21.0518

          k = 0.2500-0.5000-0.5000 (  1460 PWs)   bands (ev):

   -69.2153 -39.0513 -35.3166 -35.3166 -35.2903 -15.5221 -15.5221 -15.3473
    14.3249  14.7481  15.3770  15.3770  16.9579  16.9579  17.7766  18.1468
    20.1057  21.2257

          k = 0.3333 0.3333 0.3333 (  1463 PWs)   bands (ev):

   -69.2162 -39.0621 -35.3042 -35.3042 -35.3033 -15.4459 -15.4434 -15.4434
    14.8468  15.1249  15.4971  15.4971  15.7461  15.7461  18.4354  18.4354
    20.2324  20.2324

          k = 0.3333 0.3333 0.4167 (  1484 PWs)   bands (ev):

   -69.2157 -39.0548 -35.3127 -35.3042 -35.3035 -15.5032 -15.4390 -15.4372
    14.8877  15.0874  15.4703  15.6075  15.7076  16.1078  18.1623  18.3109
    20.2257  20.6831

          k = 0.3333 0.3333-0.5000 (  1490 PWs)   bands (ev):

   -69.2155 -39.0521 -35.3160 -35.3043 -35.3032 -15.5247 -15.4373 -15.4343
    14.8412  15.0402  15.5018  15.5138  15.8630  16.3516  17.9702  18.2710
    20.2265  20.8699

          k = 0.3333 0.4167 0.4167 (  1482 PWs)   bands (ev):

   -69.2151 -39.0475 -35.3124 -35.3122 -35.3029 -15.4973 -15.4967 -15.4328
    14.9362  15.1496  15.3985  15.5571  15.9942  16.1588  18.0186  18.1507
    20.4787  20.9227

          k = 0.3333 0.4167-0.5000 (  1478 PWs)   bands (ev):

   -69.2148 -39.0448 -35.3155 -35.3120 -35.3024 -15.5184 -15.4947 -15.4309
    14.9310  15.1077  15.4365  15.4413  16.1353  16.3434  17.8801  18.1098
    20.5224  21.0910

          k = 0.3333-0.5000-0.5000 (  1488 PWs)   bands (ev):

   -69.2146 -39.0422 -35.3154 -35.3154 -35.3021 -15.5161 -15.5161 -15.4291
    14.9345  15.1381  15.3683  15.3683  16.3843  16.3843  17.7864  18.0483
    20.5925  21.2463

          k = 0.4167 0.4167 0.4167 (  1484 PWs)   bands (ev):

   -69.2145 -39.0405 -35.3115 -35.3113 -35.3113 -15.4923 -15.4923 -15.4914
    15.1334  15.4326  15.4326  15.7445  15.8330  15.8330  17.9645  17.9645
    20.9475  20.9475

          k = 0.4167 0.4167-0.5000 (  1488 PWs)   bands (ev):

   -69.2143 -39.0379 -35.3145 -35.3112 -35.3109 -15.5135 -15.4906 -15.4896
    15.2669  15.2823  15.5066  15.6540  15.8117  16.0277  17.8464  17.9501
    20.9566  21.1513

          k = 0.4167-0.5000-0.5000 (  1488 PWs)   bands (ev):

   -69.2140 -39.0354 -35.3140 -35.3140 -35.3110 -15.5117 -15.5117 -15.4885
    15.4138  15.4251  15.4251  15.4914  15.9547  15.9547  17.7937  17.8916
    21.0612  21.2615

          k =-0.5000-0.5000-0.5000 (  1472 PWs)   bands (ev):

   -69.2137 -39.0330 -35.3134 -35.3134 -35.3134 -15.5101 -15.5101 -15.5101
    15.5120  15.5120  15.5120  15.7398  15.7398  15.7398  17.7963  17.7963
    21.2670  21.2670

     the Fermi energy is    17.6486 ev

!    total energy              =    -448.57944436 Ry
     estimated scf accuracy    <          6.1E-10 Ry
     smearing contrib. (-TS)   =       0.00002430 Ry
     internal energy E=F+TS    =    -448.57946865 Ry

     The total energy is F=E-TS. E is the sum of the following terms:
     one-electron contribution =    -151.32635204 Ry
     hartree contribution      =      91.60703794 Ry
     xc contribution           =     -52.88700161 Ry
     ewald contribution        =    -259.82070277 Ry
     one-center paw contrib.   =     -76.15245018 Ry

     convergence has been achieved in  26 iterations

     negative rho (up, down):  8.762E-04 0.000E+00

     Forces acting on atoms (cartesian axes, Ry/au):

     atom    1 type  1   force =     0.00000000    0.00000000    0.00000000
     atom    2 type  2   force =     0.00000000    0.00000000    0.00000000

     Total force =     0.000000     Total SCF correction =     0.000000


     Computing stress (Cartesian axis) and pressure


     negative rho (up, down):  8.762E-04 0.000E+00
          total   stress  (Ry/bohr**3)                   (kbar)     P=       21.57
   0.00014663   0.00000000   0.00000000           21.57        0.00        0.00
   0.00000000   0.00014663   0.00000000            0.00       21.57        0.00
   0.00000000   0.00000000   0.00014663            0.00        0.00       21.57


     Writing all to output data dir ./out/TiFe6.save/ :
     XML data file, charge density, pseudopotentials, collected wavefunctions

     init_run     :      1.06s CPU      1.16s WALL (       1 calls)
     electrons    :     42.22s CPU     46.61s WALL (       1 calls)
     forces       :      0.27s CPU      0.30s WALL (       1 calls)
     stress       :      1.30s CPU      1.39s WALL (       1 calls)

     Called by init_run:
     wfcinit      :      0.56s CPU      0.60s WALL (       1 calls)
     potinit      :      0.12s CPU      0.14s WALL (       1 calls)
     hinit0       :      0.17s CPU      0.17s WALL (       1 calls)

     Called by electrons:
     c_bands      :     30.66s CPU     32.45s WALL (      26 calls)
     sum_band     :      6.22s CPU      7.60s WALL (      26 calls)
     v_of_rho     :      0.52s CPU      0.53s WALL (      27 calls)
     newd         :      2.20s CPU      3.14s WALL (      27 calls)
     PAW_pot      :      2.68s CPU      2.98s WALL (      27 calls)
     mix_rho      :      0.06s CPU      0.06s WALL (      26 calls)

     Called by c_bands:
     init_us_2    :      0.54s CPU      0.56s WALL (    4620 calls)
     cegterg      :     29.33s CPU     31.09s WALL (    2184 calls)

     Called by *egterg:
     cdiaghg      :      2.37s CPU      2.44s WALL (    7847 calls)
     h_psi        :     19.96s CPU     21.53s WALL (    7931 calls)
     s_psi        :      1.50s CPU      1.56s WALL (    7931 calls)
     g_psi        :      0.08s CPU      0.08s WALL (    5663 calls)

     Called by h_psi:
     h_psi:calbec :      1.74s CPU      1.89s WALL (    7931 calls)
     vloc_psi     :     16.59s CPU     17.93s WALL (    7931 calls)
     add_vuspsi   :      1.48s CPU      1.57s WALL (    7931 calls)

     General routines
     calbec       :      2.84s CPU      3.06s WALL (   11543 calls)
     fft          :      0.26s CPU      0.28s WALL (     374 calls)
     ffts         :      0.01s CPU      0.01s WALL (      53 calls)
     fftw         :     16.70s CPU     18.12s WALL (  232372 calls)
     interpolate  :      0.03s CPU      0.03s WALL (      27 calls)

     Parallel routines

     PWSCF        :     45.06s CPU     49.72s WALL


   This run was terminated on:   0:39:34  30Oct2025            

=------------------------------------------------------------------------------=
   JOB DONE.
=------------------------------------------------------------------------------=
