
     Program PWSCF v.7.4.1 starts on 30Oct2025 at  0:38:10 

     This program is part of the open-source Quantum ESPRESSO suite
     for quantum simulation of materials; please cite
         "P. Giannozzi et al., J. Phys.:Condens. Matter 21 395502 (2009);
         "P. Giannozzi et al., J. Phys.:Condens. Matter 29 465901 (2017);
         "P. Giannozzi et al., J. Chem. Phys. 152 154105 (2020);
          URL http://www.quantum-espresso.org", 
     in publications or presentations arising from this work. More details at
     http://www.quantum-espresso.org/quote

     Parallel version (MPI), running on     4 processors

     MPI processes distributed on     1 nodes
     6139 MiB available memory on the printing compute node when the environment starts

     Reading input from TiFe5.in

     Current dimensions of program PWSCF are:
     Max number of different atomic species (ntypx) = 10
     Max number of k-points (npk) =  40000
     Max angular momentum in pseudopotentials (lmaxx) =  4
     file Fe.pbe-spn-kjpaw_psl.0.2.1.UPF: wavefunction(s)  3D renormalized

     IMPORTANT: XC functional enforced from input :
     Exchange-correlation= PBE
                           (   1   4   3   4   0   0   0)
     Any further DFT definition will be discarded
     Please, verify this is what you really want

     Message from routine setup:
     using ibrav=0 with symmetry is DISCOURAGED, use correct ibrav instead

     R & G space division:  proc/nbgrp/npool/nimage =       4
     Subspace diagonalization in iterative solution of the eigenvalue problem:
     a serial algorithm will be used


     Parallelization info
     --------------------
     sticks:   dense  smooth     PW     G-vecs:    dense   smooth      PW
     Min         478     155     48                15769     2937     524
     Max         481     156     49                15770     2940     527
     Sum        1917     621    193                63077    11753    2103

     Using Slab Decomposition



     bravais-lattice index     =            0
     lattice parameter (alat)  =       5.5533  a.u.
     unit-cell volume          =     171.2590 (a.u.)^3
     number of atoms/cell      =            2
     number of atomic types    =            2
     number of electrons       =        28.00
     number of Kohn-Sham states=           18
     kinetic-energy cutoff     =      64.0000  Ry
     charge density cutoff     =     782.0000  Ry
     scf convergence threshold =      1.0E-08
     mixing beta               =       0.7000
     number of iterations used =            8  plain     mixing
     Exchange-correlation= PBE
                           (   1   4   3   4   0   0   0)

     celldm(1)=   5.553300  celldm(2)=   0.000000  celldm(3)=   0.000000
     celldm(4)=   0.000000  celldm(5)=   0.000000  celldm(6)=   0.000000

     crystal axes: (cart. coord. in units of alat)
               a(1) = (   1.000000   0.000000   0.000000 )  
               a(2) = (   0.000000   1.000000   0.000000 )  
               a(3) = (   0.000000   0.000000   1.000000 )  

     reciprocal axes: (cart. coord. in units 2 pi/alat)
               b(1) = (  1.000000  0.000000  0.000000 )  
               b(2) = (  0.000000  1.000000  0.000000 )  
               b(3) = (  0.000000  0.000000  1.000000 )  


     PseudoPot. # 1 for Fe read from file:
     /home/rafi/QE/qe-7.4.1/pseudo/Fe.pbe-spn-kjpaw_psl.0.2.1.UPF
     MD5 check sum: e86618425769142926afa95317d90200
     Pseudo is Projector augmented-wave + core cor, Zval = 16.0
     Generated using "atomic" code by A. Dal Corso  v.5.0.99 svn rev. 10869
     Shape of augmentation charge: PSQ
     Using radial grid of 1191 points,  6 beta functions with: 
                l(1) =   0
                l(2) =   0
                l(3) =   1
                l(4) =   1
                l(5) =   2
                l(6) =   2
     Q(r) pseudized with 0 coefficients 


     PseudoPot. # 2 for Ti read from file:
     /home/rafi/QE/qe-7.4.1/pseudo/ti_pbe_v1.4.uspp.F.UPF
     MD5 check sum: 88a00a6731bd790ddea75d31a80cb452
     Pseudo is Ultrasoft + core correction, Zval = 12.0
     Generated by new atomic code, or converted to UPF format
     Using radial grid of  851 points,  6 beta functions with: 
                l(1) =   0
                l(2) =   0
                l(3) =   1
                l(4) =   1
                l(5) =   2
                l(6) =   2
     Q(r) pseudized with  6 coefficients,  rinner =    1.000   1.000   1.000
                                                       1.000   1.000

     atomic species   valence    mass     pseudopotential
     Fe               16.00    55.84500     Fe( 1.00)
     Ti               12.00    47.86700     Ti( 1.00)

     48 Sym. Ops., with inversion, found



   Cartesian axes

     site n.     atom                  positions (alat units)
         1        Fe     tau(   1) = (   0.5000000   0.5000000   0.5000000  )
         2        Ti     tau(   2) = (   0.0000000   0.0000000   0.0000000  )

     number of k points=    56  Marzari-Vanderbilt smearing, width (Ry)=  0.0050
                       cart. coord. in units 2pi/alat
        k(    1) = (   0.0000000   0.0000000   0.0000000), wk =   0.0020000
        k(    2) = (   0.0000000   0.0000000   0.1000000), wk =   0.0120000
        k(    3) = (   0.0000000   0.0000000   0.2000000), wk =   0.0120000
        k(    4) = (   0.0000000   0.0000000   0.3000000), wk =   0.0120000
        k(    5) = (   0.0000000   0.0000000   0.4000000), wk =   0.0120000
        k(    6) = (   0.0000000   0.0000000  -0.5000000), wk =   0.0060000
        k(    7) = (   0.0000000   0.1000000   0.1000000), wk =   0.0240000
        k(    8) = (   0.0000000   0.1000000   0.2000000), wk =   0.0480000
        k(    9) = (   0.0000000   0.1000000   0.3000000), wk =   0.0480000
        k(   10) = (   0.0000000   0.1000000   0.4000000), wk =   0.0480000
        k(   11) = (   0.0000000   0.1000000  -0.5000000), wk =   0.0240000
        k(   12) = (   0.0000000   0.2000000   0.2000000), wk =   0.0240000
        k(   13) = (   0.0000000   0.2000000   0.3000000), wk =   0.0480000
        k(   14) = (   0.0000000   0.2000000   0.4000000), wk =   0.0480000
        k(   15) = (   0.0000000   0.2000000  -0.5000000), wk =   0.0240000
        k(   16) = (   0.0000000   0.3000000   0.3000000), wk =   0.0240000
        k(   17) = (   0.0000000   0.3000000   0.4000000), wk =   0.0480000
        k(   18) = (   0.0000000   0.3000000  -0.5000000), wk =   0.0240000
        k(   19) = (   0.0000000   0.4000000   0.4000000), wk =   0.0240000
        k(   20) = (   0.0000000   0.4000000  -0.5000000), wk =   0.0240000
        k(   21) = (   0.0000000  -0.5000000  -0.5000000), wk =   0.0060000
        k(   22) = (   0.1000000   0.1000000   0.1000000), wk =   0.0160000
        k(   23) = (   0.1000000   0.1000000   0.2000000), wk =   0.0480000
        k(   24) = (   0.1000000   0.1000000   0.3000000), wk =   0.0480000
        k(   25) = (   0.1000000   0.1000000   0.4000000), wk =   0.0480000
        k(   26) = (   0.1000000   0.1000000  -0.5000000), wk =   0.0240000
        k(   27) = (   0.1000000   0.2000000   0.2000000), wk =   0.0480000
        k(   28) = (   0.1000000   0.2000000   0.3000000), wk =   0.0960000
        k(   29) = (   0.1000000   0.2000000   0.4000000), wk =   0.0960000
        k(   30) = (   0.1000000   0.2000000  -0.5000000), wk =   0.0480000
        k(   31) = (   0.1000000   0.3000000   0.3000000), wk =   0.0480000
        k(   32) = (   0.1000000   0.3000000   0.4000000), wk =   0.0960000
        k(   33) = (   0.1000000   0.3000000  -0.5000000), wk =   0.0480000
        k(   34) = (   0.1000000   0.4000000   0.4000000), wk =   0.0480000
        k(   35) = (   0.1000000   0.4000000  -0.5000000), wk =   0.0480000
        k(   36) = (   0.1000000  -0.5000000  -0.5000000), wk =   0.0120000
        k(   37) = (   0.2000000   0.2000000   0.2000000), wk =   0.0160000
        k(   38) = (   0.2000000   0.2000000   0.3000000), wk =   0.0480000
        k(   39) = (   0.2000000   0.2000000   0.4000000), wk =   0.0480000
        k(   40) = (   0.2000000   0.2000000  -0.5000000), wk =   0.0240000
        k(   41) = (   0.2000000   0.3000000   0.3000000), wk =   0.0480000
        k(   42) = (   0.2000000   0.3000000   0.4000000), wk =   0.0960000
        k(   43) = (   0.2000000   0.3000000  -0.5000000), wk =   0.0480000
        k(   44) = (   0.2000000   0.4000000   0.4000000), wk =   0.0480000
        k(   45) = (   0.2000000   0.4000000  -0.5000000), wk =   0.0480000
        k(   46) = (   0.2000000  -0.5000000  -0.5000000), wk =   0.0120000
        k(   47) = (   0.3000000   0.3000000   0.3000000), wk =   0.0160000
        k(   48) = (   0.3000000   0.3000000   0.4000000), wk =   0.0480000
        k(   49) = (   0.3000000   0.3000000  -0.5000000), wk =   0.0240000
        k(   50) = (   0.3000000   0.4000000   0.4000000), wk =   0.0480000
        k(   51) = (   0.3000000   0.4000000  -0.5000000), wk =   0.0480000
        k(   52) = (   0.3000000  -0.5000000  -0.5000000), wk =   0.0120000
        k(   53) = (   0.4000000   0.4000000   0.4000000), wk =   0.0160000
        k(   54) = (   0.4000000   0.4000000  -0.5000000), wk =   0.0240000
        k(   55) = (   0.4000000  -0.5000000  -0.5000000), wk =   0.0120000
        k(   56) = (  -0.5000000  -0.5000000  -0.5000000), wk =   0.0020000

     Dense  grid:    63077 G-vectors     FFT dimensions: (  50,  50,  50)

     Smooth grid:    11753 G-vectors     FFT dimensions: (  30,  30,  30)

     Estimated max dynamical RAM per process >      68.02 MB

     Estimated total dynamical RAM >     272.07 MB

     Check: negative core charge=   -0.000015

     Initial potential from superposition of free atoms

     starting charge      26.9995, renormalised to      28.0000

     negative rho (up, down):  1.188E-03 0.000E+00
     Starting wfcs are   23 randomized atomic wfcs
     Checking if some PAW data can be deallocated... 

     total cpu time spent up to now is        1.1 secs

     Self-consistent Calculation

     iteration #  1     ecut=    64.00 Ry     beta= 0.70
     Davidson diagonalization with overlap
     ethr =  1.00E-02,  avg # of iterations =  2.2

     negative rho (up, down):  2.079E-04 0.000E+00

     total cpu time spent up to now is        2.3 secs

     total energy              =    -434.91552423 Ry
     estimated scf accuracy    <      17.43281721 Ry

     iteration #  2     ecut=    64.00 Ry     beta= 0.70
     Davidson diagonalization with overlap
     ethr =  1.00E-02,  avg # of iterations =  6.0

     negative rho (up, down):  7.320E-05 0.000E+00

     total cpu time spent up to now is        4.3 secs

     WARNING: integrated charge=    28.00016224, expected=    28.00000000

     total energy              =    -448.55385980 Ry
     estimated scf accuracy    <      65.79294336 Ry

     iteration #  3     ecut=    64.00 Ry     beta= 0.70
     Davidson diagonalization with overlap
     ethr =  1.00E-02,  avg # of iterations =  3.2

     negative rho (up, down):  1.538E-04 0.000E+00

     total cpu time spent up to now is        5.7 secs

     WARNING: integrated charge=    28.00002239, expected=    28.00000000

     total energy              =    -448.57821769 Ry
     estimated scf accuracy    <      16.75639543 Ry

     iteration #  4     ecut=    64.00 Ry     beta= 0.70
     Davidson diagonalization with overlap
     ethr =  1.00E-02,  avg # of iterations =  2.1

     negative rho (up, down):  1.936E-04 0.000E+00

     total cpu time spent up to now is        6.9 secs

     WARNING: integrated charge=    28.00002390, expected=    28.00000000

     total energy              =    -449.09954783 Ry
     estimated scf accuracy    <       4.82023496 Ry

     iteration #  5     ecut=    64.00 Ry     beta= 0.70
     Davidson diagonalization with overlap
     ethr =  1.00E-02,  avg # of iterations =  1.0

     negative rho (up, down):  2.088E-04 0.000E+00

     total cpu time spent up to now is        8.0 secs

     WARNING: integrated charge=    28.00002556, expected=    28.00000000

     total energy              =    -449.11731639 Ry
     estimated scf accuracy    <       4.38176760 Ry

     iteration #  6     ecut=    64.00 Ry     beta= 0.70
     Davidson diagonalization with overlap
     ethr =  1.00E-02,  avg # of iterations =  1.0

     negative rho (up, down):  5.723E-04 0.000E+00

     total cpu time spent up to now is        9.0 secs

     WARNING: integrated charge=    28.00001010, expected=    28.00000000

     total energy              =    -448.49508750 Ry
     estimated scf accuracy    <       4.40882210 Ry

     iteration #  7     ecut=    64.00 Ry     beta= 0.70
     Davidson diagonalization with overlap
     ethr =  1.00E-02,  avg # of iterations =  1.1

     negative rho (up, down):  6.291E-04 0.000E+00

     total cpu time spent up to now is       10.1 secs

     WARNING: integrated charge=    28.00000973, expected=    28.00000000

     total energy              =    -448.64095874 Ry
     estimated scf accuracy    <       0.73342397 Ry

     iteration #  8     ecut=    64.00 Ry     beta= 0.70
     Davidson diagonalization with overlap
     ethr =  2.62E-03,  avg # of iterations =  1.5

     negative rho (up, down):  1.200E-03 0.000E+00

     total cpu time spent up to now is       11.1 secs

     WARNING: integrated charge=    28.00001709, expected=    28.00000000

     total energy              =    -448.44198174 Ry
     estimated scf accuracy    <       0.94128270 Ry

     iteration #  9     ecut=    64.00 Ry     beta= 0.70
     Davidson diagonalization with overlap
     ethr =  2.62E-03,  avg # of iterations =  4.0

     negative rho (up, down):  1.050E-03 0.000E+00

     total cpu time spent up to now is       12.4 secs

     WARNING: integrated charge=    28.00001732, expected=    28.00000000

     total energy              =    -448.60438393 Ry
     estimated scf accuracy    <       0.44263716 Ry

     iteration # 10     ecut=    64.00 Ry     beta= 0.70
     Davidson diagonalization with overlap
     ethr =  1.58E-03,  avg # of iterations =  1.4

     negative rho (up, down):  8.889E-04 0.000E+00

     total cpu time spent up to now is       13.5 secs

     WARNING: integrated charge=    28.00001151, expected=    28.00000000

     total energy              =    -448.58922944 Ry
     estimated scf accuracy    <       0.34228775 Ry

     iteration # 11     ecut=    64.00 Ry     beta= 0.70
     Davidson diagonalization with overlap
     ethr =  1.22E-03,  avg # of iterations =  1.0

     negative rho (up, down):  8.758E-04 0.000E+00

     total cpu time spent up to now is       14.6 secs

     total energy              =    -448.57860523 Ry
     estimated scf accuracy    <       0.25093006 Ry

     iteration # 12     ecut=    64.00 Ry     beta= 0.70
     Davidson diagonalization with overlap
     ethr =  8.96E-04,  avg # of iterations =  1.1

     negative rho (up, down):  7.900E-04 0.000E+00

     total cpu time spent up to now is       15.8 secs

     total energy              =    -448.56982456 Ry
     estimated scf accuracy    <       0.10853433 Ry

     iteration # 13     ecut=    64.00 Ry     beta= 0.70
     Davidson diagonalization with overlap
     ethr =  3.88E-04,  avg # of iterations =  2.3

     negative rho (up, down):  7.902E-04 0.000E+00

     total cpu time spent up to now is       17.1 secs

     total energy              =    -448.57967078 Ry
     estimated scf accuracy    <       0.00697364 Ry

     iteration # 14     ecut=    64.00 Ry     beta= 0.70
     Davidson diagonalization with overlap
     ethr =  2.49E-05,  avg # of iterations =  3.6

     negative rho (up, down):  1.042E-03 0.000E+00

     total cpu time spent up to now is       18.4 secs

     total energy              =    -448.57642827 Ry
     estimated scf accuracy    <       0.00528991 Ry

     iteration # 15     ecut=    64.00 Ry     beta= 0.70
     Davidson diagonalization with overlap
     ethr =  1.89E-05,  avg # of iterations =  5.6

     negative rho (up, down):  8.438E-04 0.000E+00

     total cpu time spent up to now is       20.4 secs

     total energy              =    -448.55045663 Ry
     estimated scf accuracy    <       0.39129348 Ry

     iteration # 16     ecut=    64.00 Ry     beta= 0.70
     Davidson diagonalization with overlap
     ethr =  1.89E-05,  avg # of iterations =  5.4

     negative rho (up, down):  8.551E-04 0.000E+00

     total cpu time spent up to now is       22.2 secs

     total energy              =    -448.57939669 Ry
     estimated scf accuracy    <       0.00296258 Ry

     iteration # 17     ecut=    64.00 Ry     beta= 0.70
     Davidson diagonalization with overlap
     ethr =  1.06E-05,  avg # of iterations =  1.2

     negative rho (up, down):  8.582E-04 0.000E+00

     total cpu time spent up to now is       23.4 secs

     total energy              =    -448.57937073 Ry
     estimated scf accuracy    <       0.00143985 Ry

     iteration # 18     ecut=    64.00 Ry     beta= 0.70
     Davidson diagonalization with overlap
     ethr =  5.14E-06,  avg # of iterations =  1.0

     negative rho (up, down):  8.735E-04 0.000E+00

     total cpu time spent up to now is       24.6 secs

     total energy              =    -448.57917146 Ry
     estimated scf accuracy    <       0.00092287 Ry

     iteration # 19     ecut=    64.00 Ry     beta= 0.70
     Davidson diagonalization with overlap
     ethr =  3.30E-06,  avg # of iterations =  2.7

     negative rho (up, down):  8.719E-04 0.000E+00

     total cpu time spent up to now is       25.8 secs

     total energy              =    -448.57928951 Ry
     estimated scf accuracy    <       0.00005207 Ry

     iteration # 20     ecut=    64.00 Ry     beta= 0.70
     Davidson diagonalization with overlap
     ethr =  1.86E-07,  avg # of iterations =  2.9

     negative rho (up, down):  8.714E-04 0.000E+00

     total cpu time spent up to now is       27.1 secs

     total energy              =    -448.57929467 Ry
     estimated scf accuracy    <       0.00001193 Ry

     iteration # 21     ecut=    64.00 Ry     beta= 0.70
     Davidson diagonalization with overlap
     ethr =  4.26E-08,  avg # of iterations =  2.5

     negative rho (up, down):  8.713E-04 0.000E+00

     total cpu time spent up to now is       28.3 secs

     total energy              =    -448.57929568 Ry
     estimated scf accuracy    <       0.00000029 Ry

     iteration # 22     ecut=    64.00 Ry     beta= 0.70
     Davidson diagonalization with overlap
     ethr =  1.03E-09,  avg # of iterations =  4.8

     negative rho (up, down):  8.713E-04 0.000E+00

     total cpu time spent up to now is       29.9 secs

     total energy              =    -448.57929595 Ry
     estimated scf accuracy    <       0.00000004 Ry

     iteration # 23     ecut=    64.00 Ry     beta= 0.70
     Davidson diagonalization with overlap
     ethr =  1.55E-10,  avg # of iterations =  2.4

     negative rho (up, down):  8.712E-04 0.000E+00

     total cpu time spent up to now is       31.2 secs

     total energy              =    -448.57929594 Ry
     estimated scf accuracy    <       0.00000014 Ry

     iteration # 24     ecut=    64.00 Ry     beta= 0.70
     Davidson diagonalization with overlap
     ethr =  1.55E-10,  avg # of iterations =  2.7

     negative rho (up, down):  8.712E-04 0.000E+00

     total cpu time spent up to now is       32.5 secs

     End of self-consistent calculation

          k = 0.0000 0.0000 0.0000 (  1419 PWs)   bands (ev):

   -69.2102 -39.1175 -35.2633 -35.2633 -35.2633 -15.2129 -15.2129 -15.2129
    10.1561  13.8681  13.8681  16.6609  16.6609  16.6609  19.0123  19.0123
    20.9618  20.9618

          k = 0.0000 0.0000 0.1000 (  1450 PWs)   bands (ev):

   -69.2101 -39.1150 -35.2668 -35.2633 -35.2633 -15.2482 -15.2108 -15.2108
    10.3652  13.9686  13.9762  16.6455  16.6455  16.7064  18.8847  19.0597
    20.6626  20.6626

          k = 0.0000 0.0000 0.2000 (  1454 PWs)   bands (ev):

   -69.2092 -39.1083 -35.2749 -35.2620 -35.2620 -15.3398 -15.2053 -15.2053
    10.9675  14.2471  14.2610  16.6122  16.6122  16.8318  18.5194  19.1577
    19.9956  19.9956

          k = 0.0000 0.0000 0.3000 (  1466 PWs)   bands (ev):

   -69.2082 -39.1000 -35.2854 -35.2604 -35.2604 -15.4514 -15.1984 -15.1984
    11.8862  14.5188  14.7134  16.5886  16.5886  17.0021  17.9728  19.1443
    19.3043  19.3043

          k = 0.0000 0.0000 0.4000 (  1470 PWs)   bands (ev):

   -69.2074 -39.0934 -35.2931 -35.2594 -35.2594 -15.5405 -15.1929 -15.1929
    12.9734  14.5238  15.2410  16.5896  16.5896  17.1561  17.3658  18.8006
    18.8006  18.8412

          k = 0.0000 0.0000-0.5000 (  1462 PWs)   bands (ev):

   -69.2070 -39.0908 -35.2956 -35.2589 -35.2589 -15.5743 -15.1908 -15.1908
    13.8550  14.1001  15.5505  16.5967  16.5967  17.0253  17.2199  18.6044
    18.6146  18.6146

          k = 0.0000 0.1000 0.1000 (  1460 PWs)   bands (ev):

   -69.2098 -39.1122 -35.2682 -35.2651 -35.2629 -15.2494 -15.2420 -15.2086
    10.5692  14.0625  14.0856  16.5466  16.6189  16.8183  18.8705  19.0251
    20.3458  20.3643

          k = 0.0000 0.1000 0.2000 (  1462 PWs)   bands (ev):

   -69.2089 -39.1051 -35.2756 -35.2653 -35.2618 -15.3366 -15.2387 -15.2028
    11.1550  14.3136  14.3794  16.4535  16.5561  16.9428  18.5993  19.1114
    19.7256  19.7905

          k = 0.0000 0.1000 0.3000 (  1478 PWs)   bands (ev):

   -69.2079 -39.0962 -35.2861 -35.2647 -35.2604 -15.4468 -15.2308 -15.1956
    12.0420  14.5849  14.7908  16.4125  16.4897  17.0010  18.1506  18.9349
    19.3074  19.3296

          k = 0.0000 0.1000 0.4000 (  1479 PWs)   bands (ev):

   -69.2071 -39.0890 -35.2941 -35.2641 -35.2592 -15.5348 -15.2243 -15.1897
    13.0783  14.5756  15.2653  16.4277  16.4353  16.9500  17.6914  18.4920
    19.0558  19.1769

          k = 0.0000 0.1000-0.5000 (  1474 PWs)   bands (ev):

   -69.2067 -39.0863 -35.2971 -35.2637 -35.2587 -15.5682 -15.2219 -15.1875
    13.8905  14.1779  15.5402  16.3647  16.4694  16.8889  17.4918  18.2992
    18.9976  19.0387

          k = 0.0000 0.2000 0.2000 (  1466 PWs)   bands (ev):

   -69.2081 -39.0966 -35.2790 -35.2717 -35.2607 -15.3366 -15.3173 -15.1962
    11.6853  14.4591  14.7172  16.2485  16.4390  16.9762  18.6938  19.0710
    19.1655  19.5128

          k = 0.0000 0.2000 0.3000 (  1480 PWs)   bands (ev):

   -69.2071 -39.0861 -35.2883 -35.2747 -35.2594 -15.4348 -15.3147 -15.1880
    12.4599  14.5863  15.1559  16.1180  16.3566  16.8052  18.5192  18.6577
    19.2429  19.4531

          k = 0.0000 0.2000 0.4000 (  1481 PWs)   bands (ev):

   -69.2062 -39.0777 -35.2968 -35.2758 -35.2582 -15.5198 -15.3060 -15.1813
    13.3028  14.5129  15.5503  16.1023  16.3972  16.5266  18.2081  18.3904
    19.3877  19.5814

          k = 0.0000 0.2000-0.5000 (  1488 PWs)   bands (ev):

   -69.2059 -39.0744 -35.3001 -35.2764 -35.2579 -15.5520 -15.3026 -15.1788
    13.8637  14.2480  15.7190  16.1642  16.3457  16.4757  18.1439  18.1933
    19.4208  19.6808

          k = 0.0000 0.3000 0.3000 (  1484 PWs)   bands (ev):

   -69.2060 -39.0737 -35.2927 -35.2853 -35.2584 -15.4280 -15.4090 -15.1786
    12.9934  14.4754  15.6988  15.8857  16.4026  16.4437  18.5245  18.8403
    19.1335  19.7677

          k = 0.0000 0.3000 0.4000 (  1485 PWs)   bands (ev):

   -69.2052 -39.0635 -35.3002 -35.2901 -35.2572 -15.5012 -15.4056 -15.1710
    13.4509  14.2836  15.7869  16.0930  16.1646  16.7739  18.3554  18.8607
    19.3482  20.1204

          k = 0.0000 0.3000-0.5000 (  1498 PWs)   bands (ev):

   -69.2049 -39.0597 -35.3039 -35.2915 -35.2570 -15.5321 -15.4011 -15.1681
    13.6647  14.1474  15.8284  15.8875  16.3181  17.1809  18.0923  18.8636
    19.5310  20.3206

          k = 0.0000 0.4000 0.4000 (  1484 PWs)   bands (ev):

   -69.2043 -39.0520 -35.3037 -35.3008 -35.2562 -15.4893 -15.4821 -15.1625
    13.4663  14.0834  15.5991  15.7596  16.8978  17.3581  18.5916  19.0649
    19.2697  20.5497

          k = 0.0000 0.4000-0.5000 (  1484 PWs)   bands (ev):

   -69.2040 -39.0476 -35.3067 -35.3033 -35.2558 -15.5159 -15.4799 -15.1593
    13.4521  14.0090  15.5812  15.5927  17.1876  18.0978  18.1560  19.2101
    19.3353  20.7700

          k = 0.0000-0.5000-0.5000 (  1492 PWs)   bands (ev):

   -69.2037 -39.0430 -35.3081 -35.3081 -35.2554 -15.5098 -15.5098 -15.1560
    13.3672  13.9522  15.4915  15.4915  17.7665  18.1988  18.7317  18.7317
    19.4591  20.9322

          k = 0.1000 0.1000 0.1000 (  1451 PWs)   bands (ev):

   -69.2094 -39.1093 -35.2674 -35.2674 -35.2636 -15.2497 -15.2398 -15.2398
    10.7690  14.1739  14.1739  16.5175  16.5175  16.9002  18.9354  18.9354
    19.8746  20.6368

          k = 0.1000 0.1000 0.2000 (  1462 PWs)   bands (ev):

   -69.2086 -39.1018 -35.2758 -35.2663 -35.2639 -15.3333 -15.2379 -15.2342
    11.3411  14.4282  14.4499  16.3897  16.4415  16.9575  18.6791  19.0700
    19.4094  19.9679

          k = 0.1000 0.1000 0.3000 (  1473 PWs)   bands (ev):

   -69.2076 -39.0924 -35.2865 -35.2647 -35.2639 -15.4423 -15.2286 -15.2272
    12.2015  14.7095  14.8129  16.3389  16.3395  16.8878  18.3043  18.9308
    19.2931  19.3800

          k = 0.1000 0.1000 0.4000 (  1479 PWs)   bands (ev):

   -69.2068 -39.0848 -35.2949 -35.2639 -35.2635 -15.5294 -15.2215 -15.2209
    13.1946  14.6676  15.2459  16.2090  16.4193  16.7681  17.9276  18.5972
    18.8207  19.5679

          k = 0.1000 0.1000-0.5000 (  1474 PWs)   bands (ev):

   -69.2064 -39.0819 -35.2979 -35.2637 -35.2630 -15.5624 -15.2193 -15.2180
    13.9527  14.2750  15.4958  16.1009  16.5454  16.6888  17.7581  18.3723
    18.6526  19.6931

          k = 0.1000 0.2000 0.2000 (  1475 PWs)   bands (ev):

   -69.2078 -39.0931 -35.2785 -35.2726 -35.2643 -15.3324 -15.3150 -15.2289
    11.8665  14.5891  14.7693  16.2022  16.3108  16.8258  18.7781  19.0458
    19.2080  19.6823

          k = 0.1000 0.2000 0.3000 (  1488 PWs)   bands (ev):

   -69.2068 -39.0823 -35.2884 -35.2748 -35.2637 -15.4307 -15.3117 -15.2202
    12.6296  14.7362  15.1585  16.0631  16.2180  16.5716  18.6405  18.8393
    19.2286  19.5798

          k = 0.1000 0.2000 0.4000 (  1479 PWs)   bands (ev):

   -69.2059 -39.0736 -35.2971 -35.2754 -35.2627 -15.5152 -15.3030 -15.2130
    13.4502  14.6610  15.4562  15.9845  16.2825  16.4385  18.4020  18.4765
    19.0370  20.0463

          k = 0.1000 0.2000-0.5000 (  1482 PWs)   bands (ev):

   -69.2056 -39.0702 -35.3005 -35.2757 -35.2624 -15.5472 -15.2996 -15.2102
    13.9876  14.3871  15.5841  15.9430  16.2975  16.5363  18.2060  18.3570
    18.8950  20.4182

          k = 0.1000 0.3000 0.3000 (  1483 PWs)   bands (ev):

   -69.2057 -39.0698 -35.2921 -35.2856 -35.2626 -15.4236 -15.4067 -15.2106
    13.1729  14.6260  15.6914  15.8427  16.2050  16.2561  18.6293  18.9946
    19.0913  19.9906

          k = 0.1000 0.3000 0.4000 (  1483 PWs)   bands (ev):

   -69.2049 -39.0597 -35.3001 -35.2898 -35.2614 -15.4976 -15.4028 -15.2028
    13.6226  14.4336  15.7355  15.8985  16.1763  16.6087  18.3920  18.9411
    19.1419  20.5326

          k = 0.1000 0.3000-0.5000 (  1496 PWs)   bands (ev):

   -69.2046 -39.0558 -35.3040 -35.2909 -35.2613 -15.5285 -15.3985 -15.1998
    13.8210  14.3022  15.7548  15.7691  16.2767  17.0341  18.1140  18.9954
    19.0357  20.7117

          k = 0.1000 0.4000 0.4000 (  1482 PWs)   bands (ev):

   -69.2040 -39.0484 -35.3030 -35.3006 -35.2605 -15.4862 -15.4798 -15.1945
    13.6359  14.2359  15.5674  15.6964  16.8241  17.1400  18.4712  18.8240
    19.3741  20.8247

          k = 0.1000 0.4000-0.5000 (  1484 PWs)   bands (ev):

   -69.2037 -39.0441 -35.3064 -35.3027 -35.2601 -15.5133 -15.4775 -15.1913
    13.6166  14.1639  15.5475  15.5547  17.0879  17.8169  18.0903  18.7867
    19.4442  20.9307

          k = 0.1000-0.5000-0.5000 (  1488 PWs)   bands (ev):

   -69.2034 -39.0396 -35.3074 -35.3074 -35.2598 -15.5075 -15.5075 -15.1881
    13.5334  14.1064  15.4662  15.4662  17.7703  18.2000  18.2179  18.2179
    19.5634  21.5870

          k = 0.2000 0.2000 0.2000 (  1478 PWs)   bands (ev):

   -69.2070 -39.0837 -35.2772 -35.2772 -35.2709 -15.3262 -15.3091 -15.3091
    12.3736  14.9136  14.9136  16.0821  16.0821  16.4329  18.9688  18.9688
    19.4656  19.9358

          k = 0.2000 0.2000 0.3000 (  1484 PWs)   bands (ev):

   -69.2059 -39.0722 -35.2885 -35.2756 -35.2734 -15.4199 -15.3056 -15.3018
    13.0896  15.1146  15.1650  15.9306  15.9549  16.1251  18.8472  18.9718
    19.3214  19.9307

          k = 0.2000 0.2000 0.4000 (  1481 PWs)   bands (ev):

   -69.2051 -39.0629 -35.2983 -35.2746 -35.2741 -15.5030 -15.2959 -15.2944
    13.8091  14.9447  15.3160  15.7864  16.0514  16.2704  18.5620  18.7119
    18.9290  20.4857

          k = 0.2000 0.2000-0.5000 (  1484 PWs)   bands (ev):

   -69.2048 -39.0593 -35.3019 -35.2754 -35.2736 -15.5346 -15.2937 -15.2900
    14.2350  14.6460  15.4220  15.7065  16.1299  16.5060  18.2233  18.6398
    18.8090  20.5951

          k = 0.2000 0.3000 0.3000 (  1480 PWs)   bands (ev):

   -69.2049 -39.0597 -35.2905 -35.2863 -35.2738 -15.4119 -15.4006 -15.2937
    13.6702  15.0217  15.6575  15.7411  15.7752  15.8903  18.7404  18.9317
    19.4216  20.1893

          k = 0.2000 0.3000 0.4000 (  1488 PWs)   bands (ev):

   -69.2041 -39.0496 -35.2998 -35.2888 -35.2733 -15.4881 -15.3955 -15.2854
    14.0953  14.8017  15.5867  15.6424  15.9983  16.2893  18.4362  18.6983
    19.4012  20.5257

          k = 0.2000 0.3000-0.5000 (  1488 PWs)   bands (ev):

   -69.2037 -39.0457 -35.3038 -35.2893 -35.2729 -15.5189 -15.3916 -15.2822
    14.2421  14.6733  15.5452  15.6110  16.0992  16.6953  18.1173  18.6028
    19.3727  20.6992

          k = 0.2000 0.4000 0.4000 (  1485 PWs)   bands (ev):

   -69.2032 -39.0388 -35.3015 -35.2999 -35.2721 -15.4780 -15.4737 -15.2775
    14.1147  14.6238  15.4934  15.5690  16.5868  16.5950  18.3669  18.4190
    19.7083  20.7859

          k = 0.2000 0.4000-0.5000 (  1484 PWs)   bands (ev):

   -69.2029 -39.0346 -35.3052 -35.3011 -35.2716 -15.5063 -15.4712 -15.2744
    14.0807  14.5613  15.4723  15.4761  16.7387  17.1453  18.0248  18.3780
    19.7748  20.9856

          k = 0.2000-0.5000-0.5000 (  1476 PWs)   bands (ev):

   -69.2025 -39.0304 -35.3055 -35.3055 -35.2711 -15.5014 -15.5014 -15.2715
    14.0056  14.5090  15.4104  15.4104  17.3652  17.3652  17.7801  18.1853
    19.8830  21.2345

          k = 0.3000 0.3000 0.3000 (  1478 PWs)   bands (ev):

   -69.2038 -39.0472 -35.2887 -35.2887 -35.2863 -15.3995 -15.3931 -15.3931
    14.3182  15.2861  15.5738  15.5738  15.6472  15.6472  18.6778  18.6778
    19.9795  19.9795

          k = 0.3000 0.3000 0.4000 (  1481 PWs)   bands (ev):

   -69.2030 -39.0370 -35.2994 -35.2877 -35.2872 -15.4764 -15.3871 -15.3856
    14.6650  15.0435  15.4920  15.5740  15.7278  16.0963  18.3409  18.4769
    19.9129  20.5355

          k = 0.3000 0.3000-0.5000 (  1480 PWs)   bands (ev):

   -69.2027 -39.0331 -35.3037 -35.2880 -35.2866 -15.5072 -15.3848 -15.3811
    14.6765  14.9586  15.4633  15.5406  15.8982  16.4407  18.0401  18.4069
    19.8989  20.7784

          k = 0.3000 0.4000 0.4000 (  1480 PWs)   bands (ev):

   -69.2021 -39.0268 -35.2994 -35.2989 -35.2863 -15.4678 -15.4662 -15.3788
    14.7783  15.0353  15.4297  15.5545  16.0167  16.2176  18.1599  18.2637
    20.2465  20.8092

          k = 0.3000 0.4000-0.5000 (  1484 PWs)   bands (ev):

   -69.2018 -39.0229 -35.3037 -35.2991 -35.2859 -15.4976 -15.4635 -15.3760
    14.7292  15.0004  15.4367  15.4510  16.2253  16.5103  17.9328  18.2070
    20.3044  21.0395

          k = 0.3000-0.5000-0.5000 (  1480 PWs)   bands (ev):

   -69.2015 -39.0190 -35.3036 -35.3036 -35.2853 -15.4940 -15.4940 -15.3733
    14.6938  14.9979  15.3743  15.3743  16.6056  16.6056  17.7922  18.1072
    20.4080  21.2600

          k = 0.4000 0.4000 0.4000 (  1478 PWs)   bands (ev):

   -69.2013 -39.0172 -35.2980 -35.2978 -35.2978 -15.4602 -15.4602 -15.4593
    15.0771  15.4348  15.4348  15.6614  15.8490  15.8490  18.0485  18.0485
    20.8406  20.8406

          k = 0.4000 0.4000-0.5000 (  1496 PWs)   bands (ev):

   -69.2011 -39.0135 -35.3027 -35.2978 -35.2975 -15.4906 -15.4579 -15.4565
    15.1958  15.2379  15.5131  15.6323  15.8310  16.1092  17.8765  18.0193
    20.8537  21.1243

          k = 0.4000-0.5000-0.5000 (  1488 PWs)   bands (ev):

   -69.2007 -39.0098 -35.3020 -35.3020 -35.2971 -15.4879 -15.4879 -15.4548
    15.3789  15.4037  15.4161  15.4161  16.0363  16.0363  17.8021  17.9342
    21.0004  21.2807

          k =-0.5000-0.5000-0.5000 (  1472 PWs)   bands (ev):

   -69.2003 -39.0063 -35.3011 -35.3011 -35.3011 -15.4856 -15.4856 -15.4856
    15.5194  15.5194  15.5194  15.7493  15.7493  15.7493  17.8059  17.8059
    21.2887  21.2887

     the Fermi energy is    17.7518 ev

!    total energy              =    -448.57929595 Ry
     estimated scf accuracy    <          1.3E-09 Ry
     smearing contrib. (-TS)   =      -0.00004617 Ry
     internal energy E=F+TS    =    -448.57924978 Ry

     The total energy is F=E-TS. E is the sum of the following terms:
     one-electron contribution =    -151.35176992 Ry
     hartree contribution      =      91.63688287 Ry
     xc contribution           =     -52.89148202 Ry
     ewald contribution        =    -259.82070277 Ry
     one-center paw contrib.   =     -76.15217793 Ry

     convergence has been achieved in  24 iterations

     negative rho (up, down):  8.712E-04 0.000E+00

     Forces acting on atoms (cartesian axes, Ry/au):

     atom    1 type  1   force =     0.00000000    0.00000000    0.00000000
     atom    2 type  2   force =     0.00000000    0.00000000    0.00000000

     Total force =     0.000000     Total SCF correction =     0.000000


     Computing stress (Cartesian axis) and pressure


     negative rho (up, down):  8.712E-04 0.000E+00
          total   stress  (Ry/bohr**3)                   (kbar)     P=       18.25
   0.00012403   0.00000000   0.00000000           18.25        0.00        0.00
   0.00000000   0.00012403   0.00000000            0.00       18.25        0.00
   0.00000000   0.00000000   0.00012403            0.00        0.00       18.25


     Writing all to output data dir ./out/TiFe5.save/ :
     XML data file, charge density, pseudopotentials, collected wavefunctions

     init_run     :      0.84s CPU      0.91s WALL (       1 calls)
     electrons    :     28.07s CPU     31.42s WALL (       1 calls)
     forces       :      0.23s CPU      0.26s WALL (       1 calls)
     stress       :      1.15s CPU      1.25s WALL (       1 calls)

     Called by init_run:
     wfcinit      :      0.33s CPU      0.35s WALL (       1 calls)
     potinit      :      0.13s CPU      0.14s WALL (       1 calls)
     hinit0       :      0.17s CPU      0.17s WALL (       1 calls)

     Called by electrons:
     c_bands      :     18.77s CPU     19.92s WALL (      24 calls)
     sum_band     :      4.41s CPU      5.51s WALL (      24 calls)
     v_of_rho     :      0.48s CPU      0.49s WALL (      25 calls)
     newd         :      2.03s CPU      2.89s WALL (      25 calls)
     PAW_pot      :      2.45s CPU      2.70s WALL (      25 calls)
     mix_rho      :      0.06s CPU      0.06s WALL (      24 calls)

     Called by c_bands:
     init_us_2    :      0.32s CPU      0.33s WALL (    2856 calls)
     cegterg      :     17.98s CPU     19.12s WALL (    1344 calls)

     Called by *egterg:
     cdiaghg      :      1.44s CPU      1.48s WALL (    4865 calls)
     h_psi        :     12.23s CPU     13.23s WALL (    4921 calls)
     s_psi        :      0.92s CPU      0.95s WALL (    4921 calls)
     g_psi        :      0.05s CPU      0.05s WALL (    3521 calls)

     Called by h_psi:
     h_psi:calbec :      1.07s CPU      1.15s WALL (    4921 calls)
     vloc_psi     :     10.17s CPU     11.03s WALL (    4921 calls)
     add_vuspsi   :      0.91s CPU      0.96s WALL (    4921 calls)

     General routines
     calbec       :      1.76s CPU      1.88s WALL (    7217 calls)
     fft          :      0.24s CPU      0.26s WALL (     348 calls)
     ffts         :      0.01s CPU      0.01s WALL (      49 calls)
     fftw         :     10.23s CPU     11.09s WALL (  146482 calls)
     interpolate  :      0.03s CPU      0.03s WALL (      25 calls)

     Parallel routines

     PWSCF        :     30.48s CPU     34.06s WALL


   This run was terminated on:   0:38:44  30Oct2025            

=------------------------------------------------------------------------------=
   JOB DONE.
=------------------------------------------------------------------------------=
