
     Program PWSCF v.7.4.1 starts on 30Oct2025 at  0:37:17 

     This program is part of the open-source Quantum ESPRESSO suite
     for quantum simulation of materials; please cite
         "P. Giannozzi et al., J. Phys.:Condens. Matter 21 395502 (2009);
         "P. Giannozzi et al., J. Phys.:Condens. Matter 29 465901 (2017);
         "P. Giannozzi et al., J. Chem. Phys. 152 154105 (2020);
          URL http://www.quantum-espresso.org", 
     in publications or presentations arising from this work. More details at
     http://www.quantum-espresso.org/quote

     Parallel version (MPI), running on     4 processors

     MPI processes distributed on     1 nodes
     6165 MiB available memory on the printing compute node when the environment starts

     Reading input from TiFe3.in

     Current dimensions of program PWSCF are:
     Max number of different atomic species (ntypx) = 10
     Max number of k-points (npk) =  40000
     Max angular momentum in pseudopotentials (lmaxx) =  4
     file Fe.pbe-spn-kjpaw_psl.0.2.1.UPF: wavefunction(s)  3D renormalized

     IMPORTANT: XC functional enforced from input :
     Exchange-correlation= PBE
                           (   1   4   3   4   0   0   0)
     Any further DFT definition will be discarded
     Please, verify this is what you really want

     Message from routine setup:
     using ibrav=0 with symmetry is DISCOURAGED, use correct ibrav instead

     R & G space division:  proc/nbgrp/npool/nimage =       4
     Subspace diagonalization in iterative solution of the eigenvalue problem:
     a serial algorithm will be used


     Parallelization info
     --------------------
     sticks:   dense  smooth     PW     G-vecs:    dense   smooth      PW
     Min         478     155     48                15769     2937     524
     Max         481     156     49                15770     2940     527
     Sum        1917     621    193                63077    11753    2103

     Using Slab Decomposition



     bravais-lattice index     =            0
     lattice parameter (alat)  =       5.5533  a.u.
     unit-cell volume          =     171.2590 (a.u.)^3
     number of atoms/cell      =            2
     number of atomic types    =            2
     number of electrons       =        28.00
     number of Kohn-Sham states=           18
     kinetic-energy cutoff     =      64.0000  Ry
     charge density cutoff     =     782.0000  Ry
     scf convergence threshold =      1.0E-08
     mixing beta               =       0.7000
     number of iterations used =            8  plain     mixing
     Exchange-correlation= PBE
                           (   1   4   3   4   0   0   0)

     celldm(1)=   5.553300  celldm(2)=   0.000000  celldm(3)=   0.000000
     celldm(4)=   0.000000  celldm(5)=   0.000000  celldm(6)=   0.000000

     crystal axes: (cart. coord. in units of alat)
               a(1) = (   1.000000   0.000000   0.000000 )  
               a(2) = (   0.000000   1.000000   0.000000 )  
               a(3) = (   0.000000   0.000000   1.000000 )  

     reciprocal axes: (cart. coord. in units 2 pi/alat)
               b(1) = (  1.000000  0.000000  0.000000 )  
               b(2) = (  0.000000  1.000000  0.000000 )  
               b(3) = (  0.000000  0.000000  1.000000 )  


     PseudoPot. # 1 for Fe read from file:
     /home/rafi/QE/qe-7.4.1/pseudo/Fe.pbe-spn-kjpaw_psl.0.2.1.UPF
     MD5 check sum: e86618425769142926afa95317d90200
     Pseudo is Projector augmented-wave + core cor, Zval = 16.0
     Generated using "atomic" code by A. Dal Corso  v.5.0.99 svn rev. 10869
     Shape of augmentation charge: PSQ
     Using radial grid of 1191 points,  6 beta functions with: 
                l(1) =   0
                l(2) =   0
                l(3) =   1
                l(4) =   1
                l(5) =   2
                l(6) =   2
     Q(r) pseudized with 0 coefficients 


     PseudoPot. # 2 for Ti read from file:
     /home/rafi/QE/qe-7.4.1/pseudo/ti_pbe_v1.4.uspp.F.UPF
     MD5 check sum: 88a00a6731bd790ddea75d31a80cb452
     Pseudo is Ultrasoft + core correction, Zval = 12.0
     Generated by new atomic code, or converted to UPF format
     Using radial grid of  851 points,  6 beta functions with: 
                l(1) =   0
                l(2) =   0
                l(3) =   1
                l(4) =   1
                l(5) =   2
                l(6) =   2
     Q(r) pseudized with  6 coefficients,  rinner =    1.000   1.000   1.000
                                                       1.000   1.000

     atomic species   valence    mass     pseudopotential
     Fe               16.00    55.84500     Fe( 1.00)
     Ti               12.00    47.86700     Ti( 1.00)

     48 Sym. Ops., with inversion, found



   Cartesian axes

     site n.     atom                  positions (alat units)
         1        Fe     tau(   1) = (   0.5000000   0.5000000   0.5000000  )
         2        Ti     tau(   2) = (   0.0000000   0.0000000   0.0000000  )

     number of k points=    20  Marzari-Vanderbilt smearing, width (Ry)=  0.0050
                       cart. coord. in units 2pi/alat
        k(    1) = (   0.0000000   0.0000000   0.0000000), wk =   0.0092593
        k(    2) = (   0.0000000   0.0000000   0.1666667), wk =   0.0555556
        k(    3) = (   0.0000000   0.0000000   0.3333333), wk =   0.0555556
        k(    4) = (   0.0000000   0.0000000  -0.5000000), wk =   0.0277778
        k(    5) = (   0.0000000   0.1666667   0.1666667), wk =   0.1111111
        k(    6) = (   0.0000000   0.1666667   0.3333333), wk =   0.2222222
        k(    7) = (   0.0000000   0.1666667  -0.5000000), wk =   0.1111111
        k(    8) = (   0.0000000   0.3333333   0.3333333), wk =   0.1111111
        k(    9) = (   0.0000000   0.3333333  -0.5000000), wk =   0.1111111
        k(   10) = (   0.0000000  -0.5000000  -0.5000000), wk =   0.0277778
        k(   11) = (   0.1666667   0.1666667   0.1666667), wk =   0.0740741
        k(   12) = (   0.1666667   0.1666667   0.3333333), wk =   0.2222222
        k(   13) = (   0.1666667   0.1666667  -0.5000000), wk =   0.1111111
        k(   14) = (   0.1666667   0.3333333   0.3333333), wk =   0.2222222
        k(   15) = (   0.1666667   0.3333333  -0.5000000), wk =   0.2222222
        k(   16) = (   0.1666667  -0.5000000  -0.5000000), wk =   0.0555556
        k(   17) = (   0.3333333   0.3333333   0.3333333), wk =   0.0740741
        k(   18) = (   0.3333333   0.3333333  -0.5000000), wk =   0.1111111
        k(   19) = (   0.3333333  -0.5000000  -0.5000000), wk =   0.0555556
        k(   20) = (  -0.5000000  -0.5000000  -0.5000000), wk =   0.0092593

     Dense  grid:    63077 G-vectors     FFT dimensions: (  50,  50,  50)

     Smooth grid:    11753 G-vectors     FFT dimensions: (  30,  30,  30)

     Estimated max dynamical RAM per process >      64.36 MB

     Estimated total dynamical RAM >     257.44 MB

     Check: negative core charge=   -0.000015

     Initial potential from superposition of free atoms

     starting charge      26.9995, renormalised to      28.0000

     negative rho (up, down):  1.188E-03 0.000E+00
     Starting wfcs are   23 randomized atomic wfcs
     Checking if some PAW data can be deallocated... 

     total cpu time spent up to now is        0.9 secs

     Self-consistent Calculation

     iteration #  1     ecut=    64.00 Ry     beta= 0.70
     Davidson diagonalization with overlap
     ethr =  1.00E-02,  avg # of iterations =  2.2

     negative rho (up, down):  2.081E-04 0.000E+00

     total cpu time spent up to now is        1.5 secs

     WARNING: integrated charge=    28.00019345, expected=    28.00000000

     total energy              =    -434.92837369 Ry
     estimated scf accuracy    <      17.41789840 Ry

     iteration #  2     ecut=    64.00 Ry     beta= 0.70
     Davidson diagonalization with overlap
     ethr =  1.00E-02,  avg # of iterations =  6.0

     negative rho (up, down):  7.355E-05 0.000E+00

     total cpu time spent up to now is        2.5 secs

     WARNING: integrated charge=    28.00014758, expected=    28.00000000

     total energy              =    -448.54636513 Ry
     estimated scf accuracy    <      65.76799406 Ry

     iteration #  3     ecut=    64.00 Ry     beta= 0.70
     Davidson diagonalization with overlap
     ethr =  1.00E-02,  avg # of iterations =  3.2

     negative rho (up, down):  1.557E-04 0.000E+00

     total cpu time spent up to now is        3.2 secs

     WARNING: integrated charge=    28.00011766, expected=    28.00000000

     total energy              =    -448.57119127 Ry
     estimated scf accuracy    <      16.75397317 Ry

     iteration #  4     ecut=    64.00 Ry     beta= 0.70
     Davidson diagonalization with overlap
     ethr =  1.00E-02,  avg # of iterations =  2.1

     negative rho (up, down):  1.972E-04 0.000E+00

     total cpu time spent up to now is        3.9 secs

     WARNING: integrated charge=    28.00011464, expected=    28.00000000

     total energy              =    -449.08688030 Ry
     estimated scf accuracy    <       4.89057897 Ry

     iteration #  5     ecut=    64.00 Ry     beta= 0.70
     Davidson diagonalization with overlap
     ethr =  1.00E-02,  avg # of iterations =  1.1

     negative rho (up, down):  2.101E-04 0.000E+00

     total cpu time spent up to now is        4.5 secs

     WARNING: integrated charge=    28.00011328, expected=    28.00000000

     total energy              =    -449.10627469 Ry
     estimated scf accuracy    <       4.45706997 Ry

     iteration #  6     ecut=    64.00 Ry     beta= 0.70
     Davidson diagonalization with overlap
     ethr =  1.00E-02,  avg # of iterations =  1.0

     negative rho (up, down):  4.779E-04 0.000E+00

     total cpu time spent up to now is        5.1 secs

     WARNING: integrated charge=    28.00009217, expected=    28.00000000

     total energy              =    -448.63481461 Ry
     estimated scf accuracy    <       4.47894510 Ry

     iteration #  7     ecut=    64.00 Ry     beta= 0.70
     Davidson diagonalization with overlap
     ethr =  1.00E-02,  avg # of iterations =  1.0

     negative rho (up, down):  5.162E-04 0.000E+00

     total cpu time spent up to now is        5.7 secs

     WARNING: integrated charge=    28.00008533, expected=    28.00000000

     total energy              =    -448.74948667 Ry
     estimated scf accuracy    <       1.33015143 Ry

     iteration #  8     ecut=    64.00 Ry     beta= 0.70
     Davidson diagonalization with overlap
     ethr =  4.75E-03,  avg # of iterations =  1.1
     Minimization algorithm failed to find Fermi energy: reverting to bisection
     Possible cause: smearing is larger than the electronic band-gap.

     negative rho (up, down):  1.124E-03 0.000E+00

     total cpu time spent up to now is        6.3 secs

     WARNING: integrated charge=    28.00002806, expected=    28.00000000

     total energy              =    -448.34972120 Ry
     estimated scf accuracy    <       1.87562408 Ry

     iteration #  9     ecut=    64.00 Ry     beta= 0.70
     Davidson diagonalization with overlap
     ethr =  4.75E-03,  avg # of iterations =  2.5

     negative rho (up, down):  1.008E-03 0.000E+00

     total cpu time spent up to now is        6.9 secs

     WARNING: integrated charge=    28.00002269, expected=    28.00000000

     total energy              =    -448.59853373 Ry
     estimated scf accuracy    <       0.42456424 Ry

     iteration # 10     ecut=    64.00 Ry     beta= 0.70
     Davidson diagonalization with overlap
     ethr =  1.52E-03,  avg # of iterations =  1.8
     Minimization algorithm failed to find Fermi energy: reverting to bisection
     Possible cause: smearing is larger than the electronic band-gap.

     negative rho (up, down):  8.016E-04 0.000E+00

     total cpu time spent up to now is        7.5 secs

     WARNING: integrated charge=    28.00000839, expected=    28.00000000

     total energy              =    -448.56582757 Ry
     estimated scf accuracy    <       0.48991344 Ry

     iteration # 11     ecut=    64.00 Ry     beta= 0.70
     Davidson diagonalization with overlap
     ethr =  1.52E-03,  avg # of iterations =  1.0

     negative rho (up, down):  8.333E-04 0.000E+00

     total cpu time spent up to now is        8.1 secs

     WARNING: integrated charge=    28.00291025, expected=    28.00000000

     total energy              =    -448.58624218 Ry
     estimated scf accuracy    <       0.09535374 Ry

     iteration # 12     ecut=    64.00 Ry     beta= 0.70
     Davidson diagonalization with overlap
     ethr =  3.41E-04,  avg # of iterations =  2.1

     negative rho (up, down):  7.574E-04 0.000E+00

     total cpu time spent up to now is        8.7 secs

     WARNING: integrated charge=    28.00287441, expected=    28.00000000

     total energy              =    -448.54087796 Ry
     estimated scf accuracy    <       0.45551495 Ry

     iteration # 13     ecut=    64.00 Ry     beta= 0.70
     Davidson diagonalization with overlap
     ethr =  3.41E-04,  avg # of iterations =  3.5

     negative rho (up, down):  7.596E-04 0.000E+00

     total cpu time spent up to now is        9.4 secs

     WARNING: integrated charge=    28.00100906, expected=    28.00000000

     total energy              =    -448.57853920 Ry
     estimated scf accuracy    <       0.01328303 Ry

     iteration # 14     ecut=    64.00 Ry     beta= 0.70
     Davidson diagonalization with overlap
     ethr =  4.74E-05,  avg # of iterations =  2.6

     negative rho (up, down):  1.096E-03 0.000E+00

     total cpu time spent up to now is       10.0 secs

     WARNING: integrated charge=    27.99436899, expected=    28.00000000

     total energy              =    -448.57019911 Ry
     estimated scf accuracy    <       0.01301090 Ry

     iteration # 15     ecut=    64.00 Ry     beta= 0.70
     Davidson diagonalization with overlap
     ethr =  4.65E-05,  avg # of iterations =  5.5

     negative rho (up, down):  8.138E-04 0.000E+00

     total cpu time spent up to now is       10.8 secs

     WARNING: integrated charge=    28.00245150, expected=    28.00000000

     total energy              =    -448.52366821 Ry
     estimated scf accuracy    <       0.49499619 Ry

     iteration # 16     ecut=    64.00 Ry     beta= 0.70
     Davidson diagonalization with overlap
     ethr =  4.65E-05,  avg # of iterations =  5.3

     negative rho (up, down):  8.570E-04 0.000E+00

     total cpu time spent up to now is       11.6 secs

     WARNING: integrated charge=    28.00072859, expected=    28.00000000

     total energy              =    -448.57534637 Ry
     estimated scf accuracy    <       0.03772677 Ry

     iteration # 17     ecut=    64.00 Ry     beta= 0.70
     Davidson diagonalization with overlap
     ethr =  4.65E-05,  avg # of iterations =  1.8

     negative rho (up, down):  8.726E-04 0.000E+00

     total cpu time spent up to now is       12.2 secs

     WARNING: integrated charge=    28.00020141, expected=    28.00000000

     total energy              =    -448.57647740 Ry
     estimated scf accuracy    <       0.00266701 Ry

     iteration # 18     ecut=    64.00 Ry     beta= 0.70
     Davidson diagonalization with overlap
     ethr =  9.53E-06,  avg # of iterations =  3.3

     negative rho (up, down):  8.784E-04 0.000E+00

     total cpu time spent up to now is       12.9 secs

     WARNING: integrated charge=    27.99981700, expected=    28.00000000

     total energy              =    -448.57659555 Ry
     estimated scf accuracy    <       0.00057473 Ry

     iteration # 19     ecut=    64.00 Ry     beta= 0.70
     Davidson diagonalization with overlap
     ethr =  2.05E-06,  avg # of iterations =  2.9

     negative rho (up, down):  8.815E-04 0.000E+00

     total cpu time spent up to now is       13.5 secs

     total energy              =    -448.57665619 Ry
     estimated scf accuracy    <       0.00001642 Ry

     iteration # 20     ecut=    64.00 Ry     beta= 0.70
     Davidson diagonalization with overlap
     ethr =  5.86E-08,  avg # of iterations =  4.3

     negative rho (up, down):  8.832E-04 0.000E+00

     total cpu time spent up to now is       14.3 secs

     WARNING: integrated charge=    27.99999568, expected=    28.00000000

     total energy              =    -448.57666019 Ry
     estimated scf accuracy    <       0.00001010 Ry

     iteration # 21     ecut=    64.00 Ry     beta= 0.70
     Davidson diagonalization with overlap
     ethr =  3.61E-08,  avg # of iterations =  2.0

     negative rho (up, down):  8.838E-04 0.000E+00

     total cpu time spent up to now is       14.9 secs

     total energy              =    -448.57666065 Ry
     estimated scf accuracy    <       0.00000956 Ry

     iteration # 22     ecut=    64.00 Ry     beta= 0.70
     Davidson diagonalization with overlap
     ethr =  3.41E-08,  avg # of iterations =  1.1

     negative rho (up, down):  8.842E-04 0.000E+00

     total cpu time spent up to now is       15.6 secs

     WARNING: integrated charge=    27.99999045, expected=    28.00000000

     total energy              =    -448.57666052 Ry
     estimated scf accuracy    <       0.00000294 Ry

     iteration # 23     ecut=    64.00 Ry     beta= 0.70
     Davidson diagonalization with overlap
     ethr =  1.05E-08,  avg # of iterations =  2.4

     negative rho (up, down):  8.841E-04 0.000E+00

     total cpu time spent up to now is       16.3 secs

     WARNING: integrated charge=    28.00000312, expected=    28.00000000

     total energy              =    -448.57666086 Ry
     estimated scf accuracy    <       0.00000012 Ry

     iteration # 24     ecut=    64.00 Ry     beta= 0.70
     Davidson diagonalization with overlap
     ethr =  4.40E-10,  avg # of iterations =  4.5

     negative rho (up, down):  8.840E-04 0.000E+00

     total cpu time spent up to now is       17.1 secs

     WARNING: integrated charge=    27.99999704, expected=    28.00000000

     total energy              =    -448.57666086 Ry
     estimated scf accuracy    <       0.00000030 Ry

     iteration # 25     ecut=    64.00 Ry     beta= 0.70
     Davidson diagonalization with overlap
     ethr =  4.40E-10,  avg # of iterations =  3.1

     negative rho (up, down):  8.840E-04 0.000E+00

     total cpu time spent up to now is       17.8 secs

     total energy              =    -448.57666089 Ry
     estimated scf accuracy    <       0.00000012 Ry

     iteration # 26     ecut=    64.00 Ry     beta= 0.70
     Davidson diagonalization with overlap
     ethr =  4.34E-10,  avg # of iterations =  1.0

     negative rho (up, down):  8.840E-04 0.000E+00

     total cpu time spent up to now is       18.5 secs

     End of self-consistent calculation

          k = 0.0000 0.0000 0.0000 (  1419 PWs)   bands (ev):

   -69.2849 -39.1701 -35.3339 -35.3339 -35.3339 -15.2620 -15.2620 -15.2620
    10.1527  13.8389  13.8389  16.6093  16.6093  16.6093  18.9667  18.9667
    20.9150  20.9150

          k = 0.0000 0.0000 0.1667 (  1450 PWs)   bands (ev):

   -69.2842 -39.1635 -35.3423 -35.3331 -35.3331 -15.3536 -15.2565 -15.2565
    10.7230  14.1130  14.1172  16.5723  16.5723  16.7302  18.6223  19.0804
    20.1935  20.1935

          k = 0.0000 0.0000 0.3333 (  1458 PWs)   bands (ev):

   -69.2825 -39.1502 -35.3585 -35.3306 -35.3306 -15.5336 -15.2455 -15.2455
    12.2352  14.5409  14.8527  16.5348  16.5348  17.0038  17.7330  19.0276
    19.0726  19.0726

          k = 0.0000 0.0000-0.5000 (  1462 PWs)   bands (ev):

   -69.2817 -39.1435 -35.3660 -35.3296 -35.3296 -15.6219 -15.2400 -15.2400
    13.8404  14.0925  15.5063  16.5443  16.5443  17.0005  17.1629  18.5554
    18.5821  18.5821

          k = 0.0000 0.1667 0.1667 (  1460 PWs)   bands (ev):

   -69.2834 -39.1555 -35.3453 -35.3392 -35.3321 -15.3534 -15.3374 -15.2502
    11.2505  14.3032  14.4334  16.3129  16.4647  16.9205  18.6860  19.0067
    19.5199  19.6715

          k = 0.0000 0.1667 0.3333 (  1480 PWs)   bands (ev):

   -69.2817 -39.1397 -35.3611 -35.3417 -35.3299 -15.5204 -15.3286 -15.2376
    12.6006  14.5977  15.1140  16.1565  16.3281  16.7784  18.2303  18.5585
    19.2794  19.3298

          k = 0.0000 0.1667-0.5000 (  1484 PWs)   bands (ev):

   -69.2809 -39.1317 -35.3694 -35.3420 -35.3290 -15.6059 -15.3207 -15.2313
    13.8770  14.2280  15.5755  16.2275  16.3361  16.4759  17.9181  18.1330
    19.2769  19.4060

          k = 0.0000 0.3333 0.3333 (  1498 PWs)   bands (ev):

   -69.2801 -39.1185 -35.3675 -35.3615 -35.3284 -15.5009 -15.4853 -15.2219
    13.2677  14.3169  15.7305  16.0501  16.1431  16.5646  18.4699  18.9279
    19.0990  19.9816

          k = 0.0000 0.3333-0.5000 (  1482 PWs)   bands (ev):

   -69.2792 -39.1079 -35.3752 -35.3662 -35.3270 -15.5738 -15.4796 -15.2140
    13.5660  14.0702  15.6870  15.7248  16.5545  17.4833  18.0369  19.0110
    19.4455  20.4490

          k = 0.0000-0.5000-0.5000 (  1492 PWs)   bands (ev):

   -69.2784 -39.0959 -35.3785 -35.3785 -35.3261 -15.5577 -15.5577 -15.2053
    13.3464  13.9224  15.4484  15.4484  17.7070  18.1478  18.7266  18.7266
    19.4143  20.8817

          k = 0.1667 0.1667 0.1667 (  1466 PWs)   bands (ev):

   -69.2825 -39.1468 -35.3440 -35.3440 -35.3377 -15.3485 -15.3316 -15.3316
    11.7562  14.6129  14.6129  16.2033  16.2033  16.7478  18.8882  18.8882
    19.2313  20.1280

          k = 0.1667 0.1667 0.3333 (  1482 PWs)   bands (ev):

   -69.2809 -39.1293 -35.3620 -35.3416 -35.3405 -15.5087 -15.3215 -15.3200
    13.0120  14.9782  15.0560  15.9663  16.0537  16.3272  18.5956  18.8293
    19.0585  19.7976

          k = 0.1667 0.1667-0.5000 (  1472 PWs)   bands (ev):

   -69.2800 -39.1205 -35.3710 -35.3414 -35.3400 -15.5924 -15.3142 -15.3112
    14.1058  14.4996  15.4005  15.7692  16.2322  16.4763  18.2257  18.4096
    18.6237  20.5073

          k = 0.1667 0.3333 0.3333 (  1483 PWs)   bands (ev):

   -69.2792 -39.1085 -35.3658 -35.3615 -35.3395 -15.4902 -15.4792 -15.3048
    13.7545  14.7016  15.6287  15.7822  15.9677  16.0992  18.5302  18.8550
    19.2967  20.3951

          k = 0.1667 0.3333-0.5000 (  1486 PWs)   bands (ev):

   -69.2784 -39.0981 -35.3748 -35.3648 -35.3387 -15.5653 -15.4729 -15.2967
    13.9962  14.4649  15.5549  15.5607  16.3215  16.9839  18.0470  18.6269
    19.3544  20.7183

          k = 0.1667-0.5000-0.5000 (  1492 PWs)   bands (ev):

   -69.2776 -39.0868 -35.3768 -35.3768 -35.3376 -15.5517 -15.5517 -15.2887
    13.7969  14.3230  15.3879  15.3879  17.6298  17.6298  17.7167  18.1424
    19.7085  22.3710

          k = 0.3333 0.3333 0.3333 (  1463 PWs)   bands (ev):

   -69.2774 -39.0884 -35.3624 -35.3624 -35.3615 -15.4696 -15.4671 -15.4671
    14.8399  15.0934  15.4667  15.4667  15.7201  15.7201  18.3985  18.3985
    20.2098  20.2098

          k = 0.3333 0.3333-0.5000 (  1490 PWs)   bands (ev):

   -69.2767 -39.0784 -35.3741 -35.3624 -35.3613 -15.5483 -15.4611 -15.4581
    14.8252  15.0087  15.4796  15.4816  15.8311  16.3424  17.9237  18.2320
    20.2045  20.8478

          k = 0.3333-0.5000-0.5000 (  1488 PWs)   bands (ev):

   -69.2759 -39.0685 -35.3735 -35.3735 -35.3603 -15.5397 -15.5397 -15.4529
    14.9203  15.1059  15.3379  15.3379  16.3688  16.3688  17.7362  18.0036
    20.5705  21.2268

          k =-0.5000-0.5000-0.5000 (  1472 PWs)   bands (ev):

   -69.2750 -39.0593 -35.3715 -35.3715 -35.3715 -15.5337 -15.5337 -15.5337
    15.4761  15.4761  15.4761  15.7297  15.7297  15.7297  17.7460  17.7460
    21.2474  26.2279

     the Fermi energy is    17.6909 ev

!    total energy              =    -448.57666090 Ry
     estimated scf accuracy    <          4.4E-10 Ry
     smearing contrib. (-TS)   =      -0.00006958 Ry
     internal energy E=F+TS    =    -448.57659132 Ry

     The total energy is F=E-TS. E is the sum of the following terms:
     one-electron contribution =    -151.25554956 Ry
     hartree contribution      =      91.53136003 Ry
     xc contribution           =     -52.87862140 Ry
     ewald contribution        =    -259.82070277 Ry
     one-center paw contrib.   =     -76.15307761 Ry

     convergence has been achieved in  26 iterations

     negative rho (up, down):  8.840E-04 0.000E+00

     Forces acting on atoms (cartesian axes, Ry/au):

     atom    1 type  1   force =     0.00000000    0.00000000    0.00000000
     atom    2 type  2   force =     0.00000000    0.00000000    0.00000000

     Total force =     0.000000     Total SCF correction =     0.000000


     Computing stress (Cartesian axis) and pressure


     negative rho (up, down):  8.840E-04 0.000E+00
          total   stress  (Ry/bohr**3)                   (kbar)     P=       29.91
   0.00020335   0.00000000   0.00000000           29.91        0.00        0.00
   0.00000000   0.00020335   0.00000000            0.00       29.91        0.00
   0.00000000   0.00000000   0.00020335            0.00        0.00       29.91


     Writing all to output data dir ./out/TiFe3.save/ :
     XML data file, charge density, pseudopotentials, collected wavefunctions

     init_run     :      0.62s CPU      0.68s WALL (       1 calls)
     electrons    :     15.03s CPU     17.60s WALL (       1 calls)
     forces       :      0.19s CPU      0.22s WALL (       1 calls)
     stress       :      0.97s CPU      1.06s WALL (       1 calls)

     Called by init_run:
     wfcinit      :      0.12s CPU      0.13s WALL (       1 calls)
     potinit      :      0.13s CPU      0.14s WALL (       1 calls)
     hinit0       :      0.17s CPU      0.17s WALL (       1 calls)

     Called by electrons:
     c_bands      :      6.79s CPU      7.21s WALL (      26 calls)
     sum_band     :      3.00s CPU      4.02s WALL (      26 calls)
     v_of_rho     :      0.52s CPU      0.53s WALL (      27 calls)
     newd         :      2.18s CPU      3.07s WALL (      27 calls)
     PAW_pot      :      2.59s CPU      2.86s WALL (      27 calls)
     mix_rho      :      0.06s CPU      0.06s WALL (      26 calls)

     Called by c_bands:
     init_us_2    :      0.12s CPU      0.13s WALL (    1100 calls)
     cegterg      :      6.50s CPU      6.91s WALL (     520 calls)

     Called by *egterg:
     cdiaghg      :      0.52s CPU      0.54s WALL (    1884 calls)
     h_psi        :      4.44s CPU      4.80s WALL (    1904 calls)
     s_psi        :      0.33s CPU      0.34s WALL (    1904 calls)
     g_psi        :      0.02s CPU      0.02s WALL (    1364 calls)

     Called by h_psi:
     h_psi:calbec :      0.39s CPU      0.43s WALL (    1904 calls)
     vloc_psi     :      3.68s CPU      3.99s WALL (    1904 calls)
     add_vuspsi   :      0.33s CPU      0.34s WALL (    1904 calls)

     General routines
     calbec       :      0.66s CPU      0.70s WALL (    2764 calls)
     fft          :      0.25s CPU      0.27s WALL (     374 calls)
     ffts         :      0.01s CPU      0.01s WALL (      53 calls)
     fftw         :      3.68s CPU      3.99s WALL (   55660 calls)
     interpolate  :      0.03s CPU      0.03s WALL (      27 calls)

     Parallel routines

     PWSCF        :     16.99s CPU     19.77s WALL


   This run was terminated on:   0:37:37  30Oct2025            

=------------------------------------------------------------------------------=
   JOB DONE.
=------------------------------------------------------------------------------=
